  lammps argon data

1000 atoms
1 atom types

-5.29039649212 5.29039649212 xlo xhi
-5.29039649212 5.29039649212 ylo yhi
-5.29039649212 5.29039649212 zlo zhi

Masses

1 39.948

Atoms

1 0 1 0 -4.761356843 -4.761356843 -4.761356843
2 0 1 0 -3.703277544 -4.761356843 -4.761356843
3 0 1 0 -2.645198246 -4.761356843 -4.761356843
4 0 1 0 -1.587118948 -4.761356843 -4.761356843
5 0 1 0 -0.5290396492 -4.761356843 -4.761356843
6 0 1 0 0.5290396492 -4.761356843 -4.761356843
7 0 1 0 1.587118948 -4.761356843 -4.761356843
8 0 1 0 2.645198246 -4.761356843 -4.761356843
9 0 1 0 3.703277544 -4.761356843 -4.761356843
10 0 1 0 4.761356843 -4.761356843 -4.761356843
11 0 1 0 -4.761356843 -3.703277544 -4.761356843
12 0 1 0 -3.703277544 -3.703277544 -4.761356843
13 0 1 0 -2.645198246 -3.703277544 -4.761356843
14 0 1 0 -1.587118948 -3.703277544 -4.761356843
15 0 1 0 -0.5290396492 -3.703277544 -4.761356843
16 0 1 0 0.5290396492 -3.703277544 -4.761356843
17 0 1 0 1.587118948 -3.703277544 -4.761356843
18 0 1 0 2.645198246 -3.703277544 -4.761356843
19 0 1 0 3.703277544 -3.703277544 -4.761356843
20 0 1 0 4.761356843 -3.703277544 -4.761356843
21 0 1 0 -4.761356843 -2.645198246 -4.761356843
22 0 1 0 -3.703277544 -2.645198246 -4.761356843
23 0 1 0 -2.645198246 -2.645198246 -4.761356843
24 0 1 0 -1.587118948 -2.645198246 -4.761356843
25 0 1 0 -0.5290396492 -2.645198246 -4.761356843
26 0 1 0 0.5290396492 -2.645198246 -4.761356843
27 0 1 0 1.587118948 -2.645198246 -4.761356843
28 0 1 0 2.645198246 -2.645198246 -4.761356843
29 0 1 0 3.703277544 -2.645198246 -4.761356843
30 0 1 0 4.761356843 -2.645198246 -4.761356843
31 0 1 0 -4.761356843 -1.587118948 -4.761356843
32 0 1 0 -3.703277544 -1.587118948 -4.761356843
33 0 1 0 -2.645198246 -1.587118948 -4.761356843
34 0 1 0 -1.587118948 -1.587118948 -4.761356843
35 0 1 0 -0.5290396492 -1.587118948 -4.761356843
36 0 1 0 0.5290396492 -1.587118948 -4.761356843
37 0 1 0 1.587118948 -1.587118948 -4.761356843
38 0 1 0 2.645198246 -1.587118948 -4.761356843
39 0 1 0 3.703277544 -1.587118948 -4.761356843
40 0 1 0 4.761356843 -1.587118948 -4.761356843
41 0 1 0 -4.761356843 -0.5290396492 -4.761356843
42 0 1 0 -3.703277544 -0.5290396492 -4.761356843
43 0 1 0 -2.645198246 -0.5290396492 -4.761356843
44 0 1 0 -1.587118948 -0.5290396492 -4.761356843
45 0 1 0 -0.5290396492 -0.5290396492 -4.761356843
46 0 1 0 0.5290396492 -0.5290396492 -4.761356843
47 0 1 0 1.587118948 -0.5290396492 -4.761356843
48 0 1 0 2.645198246 -0.5290396492 -4.761356843
49 0 1 0 3.703277544 -0.5290396492 -4.761356843
50 0 1 0 4.761356843 -0.5290396492 -4.761356843
51 0 1 0 -4.761356843 0.5290396492 -4.761356843
52 0 1 0 -3.703277544 0.5290396492 -4.761356843
53 0 1 0 -2.645198246 0.5290396492 -4.761356843
54 0 1 0 -1.587118948 0.5290396492 -4.761356843
55 0 1 0 -0.5290396492 0.5290396492 -4.761356843
56 0 1 0 0.5290396492 0.5290396492 -4.761356843
57 0 1 0 1.587118948 0.5290396492 -4.761356843
58 0 1 0 2.645198246 0.5290396492 -4.761356843
59 0 1 0 3.703277544 0.5290396492 -4.761356843
60 0 1 0 4.761356843 0.5290396492 -4.761356843
61 0 1 0 -4.761356843 1.587118948 -4.761356843
62 0 1 0 -3.703277544 1.587118948 -4.761356843
63 0 1 0 -2.645198246 1.587118948 -4.761356843
64 0 1 0 -1.587118948 1.587118948 -4.761356843
65 0 1 0 -0.5290396492 1.587118948 -4.761356843
66 0 1 0 0.5290396492 1.587118948 -4.761356843
67 0 1 0 1.587118948 1.587118948 -4.761356843
68 0 1 0 2.645198246 1.587118948 -4.761356843
69 0 1 0 3.703277544 1.587118948 -4.761356843
70 0 1 0 4.761356843 1.587118948 -4.761356843
71 0 1 0 -4.761356843 2.645198246 -4.761356843
72 0 1 0 -3.703277544 2.645198246 -4.761356843
73 0 1 0 -2.645198246 2.645198246 -4.761356843
74 0 1 0 -1.587118948 2.645198246 -4.761356843
75 0 1 0 -0.5290396492 2.645198246 -4.761356843
76 0 1 0 0.5290396492 2.645198246 -4.761356843
77 0 1 0 1.587118948 2.645198246 -4.761356843
78 0 1 0 2.645198246 2.645198246 -4.761356843
79 0 1 0 3.703277544 2.645198246 -4.761356843
80 0 1 0 4.761356843 2.645198246 -4.761356843
81 0 1 0 -4.761356843 3.703277544 -4.761356843
82 0 1 0 -3.703277544 3.703277544 -4.761356843
83 0 1 0 -2.645198246 3.703277544 -4.761356843
84 0 1 0 -1.587118948 3.703277544 -4.761356843
85 0 1 0 -0.5290396492 3.703277544 -4.761356843
86 0 1 0 0.5290396492 3.703277544 -4.761356843
87 0 1 0 1.587118948 3.703277544 -4.761356843
88 0 1 0 2.645198246 3.703277544 -4.761356843
89 0 1 0 3.703277544 3.703277544 -4.761356843
90 0 1 0 4.761356843 3.703277544 -4.761356843
91 0 1 0 -4.761356843 4.761356843 -4.761356843
92 0 1 0 -3.703277544 4.761356843 -4.761356843
93 0 1 0 -2.645198246 4.761356843 -4.761356843
94 0 1 0 -1.587118948 4.761356843 -4.761356843
95 0 1 0 -0.5290396492 4.761356843 -4.761356843
96 0 1 0 0.5290396492 4.761356843 -4.761356843
97 0 1 0 1.587118948 4.761356843 -4.761356843
98 0 1 0 2.645198246 4.761356843 -4.761356843
99 0 1 0 3.703277544 4.761356843 -4.761356843
100 0 1 0 4.761356843 4.761356843 -4.761356843
101 0 1 0 -4.761356843 -4.761356843 -3.703277544
102 0 1 0 -3.703277544 -4.761356843 -3.703277544
103 0 1 0 -2.645198246 -4.761356843 -3.703277544
104 0 1 0 -1.587118948 -4.761356843 -3.703277544
105 0 1 0 -0.5290396492 -4.761356843 -3.703277544
106 0 1 0 0.5290396492 -4.761356843 -3.703277544
107 0 1 0 1.587118948 -4.761356843 -3.703277544
108 0 1 0 2.645198246 -4.761356843 -3.703277544
109 0 1 0 3.703277544 -4.761356843 -3.703277544
110 0 1 0 4.761356843 -4.761356843 -3.703277544
111 0 1 0 -4.761356843 -3.703277544 -3.703277544
112 0 1 0 -3.703277544 -3.703277544 -3.703277544
113 0 1 0 -2.645198246 -3.703277544 -3.703277544
114 0 1 0 -1.587118948 -3.703277544 -3.703277544
115 0 1 0 -0.5290396492 -3.703277544 -3.703277544
116 0 1 0 0.5290396492 -3.703277544 -3.703277544
117 0 1 0 1.587118948 -3.703277544 -3.703277544
118 0 1 0 2.645198246 -3.703277544 -3.703277544
119 0 1 0 3.703277544 -3.703277544 -3.703277544
120 0 1 0 4.761356843 -3.703277544 -3.703277544
121 0 1 0 -4.761356843 -2.645198246 -3.703277544
122 0 1 0 -3.703277544 -2.645198246 -3.703277544
123 0 1 0 -2.645198246 -2.645198246 -3.703277544
124 0 1 0 -1.587118948 -2.645198246 -3.703277544
125 0 1 0 -0.5290396492 -2.645198246 -3.703277544
126 0 1 0 0.5290396492 -2.645198246 -3.703277544
127 0 1 0 1.587118948 -2.645198246 -3.703277544
128 0 1 0 2.645198246 -2.645198246 -3.703277544
129 0 1 0 3.703277544 -2.645198246 -3.703277544
130 0 1 0 4.761356843 -2.645198246 -3.703277544
131 0 1 0 -4.761356843 -1.587118948 -3.703277544
132 0 1 0 -3.703277544 -1.587118948 -3.703277544
133 0 1 0 -2.645198246 -1.587118948 -3.703277544
134 0 1 0 -1.587118948 -1.587118948 -3.703277544
135 0 1 0 -0.5290396492 -1.587118948 -3.703277544
136 0 1 0 0.5290396492 -1.587118948 -3.703277544
137 0 1 0 1.587118948 -1.587118948 -3.703277544
138 0 1 0 2.645198246 -1.587118948 -3.703277544
139 0 1 0 3.703277544 -1.587118948 -3.703277544
140 0 1 0 4.761356843 -1.587118948 -3.703277544
141 0 1 0 -4.761356843 -0.5290396492 -3.703277544
142 0 1 0 -3.703277544 -0.5290396492 -3.703277544
143 0 1 0 -2.645198246 -0.5290396492 -3.703277544
144 0 1 0 -1.587118948 -0.5290396492 -3.703277544
145 0 1 0 -0.5290396492 -0.5290396492 -3.703277544
146 0 1 0 0.5290396492 -0.5290396492 -3.703277544
147 0 1 0 1.587118948 -0.5290396492 -3.703277544
148 0 1 0 2.645198246 -0.5290396492 -3.703277544
149 0 1 0 3.703277544 -0.5290396492 -3.703277544
150 0 1 0 4.761356843 -0.5290396492 -3.703277544
151 0 1 0 -4.761356843 0.5290396492 -3.703277544
152 0 1 0 -3.703277544 0.5290396492 -3.703277544
153 0 1 0 -2.645198246 0.5290396492 -3.703277544
154 0 1 0 -1.587118948 0.5290396492 -3.703277544
155 0 1 0 -0.5290396492 0.5290396492 -3.703277544
156 0 1 0 0.5290396492 0.5290396492 -3.703277544
157 0 1 0 1.587118948 0.5290396492 -3.703277544
158 0 1 0 2.645198246 0.5290396492 -3.703277544
159 0 1 0 3.703277544 0.5290396492 -3.703277544
160 0 1 0 4.761356843 0.5290396492 -3.703277544
161 0 1 0 -4.761356843 1.587118948 -3.703277544
162 0 1 0 -3.703277544 1.587118948 -3.703277544
163 0 1 0 -2.645198246 1.587118948 -3.703277544
164 0 1 0 -1.587118948 1.587118948 -3.703277544
165 0 1 0 -0.5290396492 1.587118948 -3.703277544
166 0 1 0 0.5290396492 1.587118948 -3.703277544
167 0 1 0 1.587118948 1.587118948 -3.703277544
168 0 1 0 2.645198246 1.587118948 -3.703277544
169 0 1 0 3.703277544 1.587118948 -3.703277544
170 0 1 0 4.761356843 1.587118948 -3.703277544
171 0 1 0 -4.761356843 2.645198246 -3.703277544
172 0 1 0 -3.703277544 2.645198246 -3.703277544
173 0 1 0 -2.645198246 2.645198246 -3.703277544
174 0 1 0 -1.587118948 2.645198246 -3.703277544
175 0 1 0 -0.5290396492 2.645198246 -3.703277544
176 0 1 0 0.5290396492 2.645198246 -3.703277544
177 0 1 0 1.587118948 2.645198246 -3.703277544
178 0 1 0 2.645198246 2.645198246 -3.703277544
179 0 1 0 3.703277544 2.645198246 -3.703277544
180 0 1 0 4.761356843 2.645198246 -3.703277544
181 0 1 0 -4.761356843 3.703277544 -3.703277544
182 0 1 0 -3.703277544 3.703277544 -3.703277544
183 0 1 0 -2.645198246 3.703277544 -3.703277544
184 0 1 0 -1.587118948 3.703277544 -3.703277544
185 0 1 0 -0.5290396492 3.703277544 -3.703277544
186 0 1 0 0.5290396492 3.703277544 -3.703277544
187 0 1 0 1.587118948 3.703277544 -3.703277544
188 0 1 0 2.645198246 3.703277544 -3.703277544
189 0 1 0 3.703277544 3.703277544 -3.703277544
190 0 1 0 4.761356843 3.703277544 -3.703277544
191 0 1 0 -4.761356843 4.761356843 -3.703277544
192 0 1 0 -3.703277544 4.761356843 -3.703277544
193 0 1 0 -2.645198246 4.761356843 -3.703277544
194 0 1 0 -1.587118948 4.761356843 -3.703277544
195 0 1 0 -0.5290396492 4.761356843 -3.703277544
196 0 1 0 0.5290396492 4.761356843 -3.703277544
197 0 1 0 1.587118948 4.761356843 -3.703277544
198 0 1 0 2.645198246 4.761356843 -3.703277544
199 0 1 0 3.703277544 4.761356843 -3.703277544
200 0 1 0 4.761356843 4.761356843 -3.703277544
201 0 1 0 -4.761356843 -4.761356843 -2.645198246
202 0 1 0 -3.703277544 -4.761356843 -2.645198246
203 0 1 0 -2.645198246 -4.761356843 -2.645198246
204 0 1 0 -1.587118948 -4.761356843 -2.645198246
205 0 1 0 -0.5290396492 -4.761356843 -2.645198246
206 0 1 0 0.5290396492 -4.761356843 -2.645198246
207 0 1 0 1.587118948 -4.761356843 -2.645198246
208 0 1 0 2.645198246 -4.761356843 -2.645198246
209 0 1 0 3.703277544 -4.761356843 -2.645198246
210 0 1 0 4.761356843 -4.761356843 -2.645198246
211 0 1 0 -4.761356843 -3.703277544 -2.645198246
212 0 1 0 -3.703277544 -3.703277544 -2.645198246
213 0 1 0 -2.645198246 -3.703277544 -2.645198246
214 0 1 0 -1.587118948 -3.703277544 -2.645198246
215 0 1 0 -0.5290396492 -3.703277544 -2.645198246
216 0 1 0 0.5290396492 -3.703277544 -2.645198246
217 0 1 0 1.587118948 -3.703277544 -2.645198246
218 0 1 0 2.645198246 -3.703277544 -2.645198246
219 0 1 0 3.703277544 -3.703277544 -2.645198246
220 0 1 0 4.761356843 -3.703277544 -2.645198246
221 0 1 0 -4.761356843 -2.645198246 -2.645198246
222 0 1 0 -3.703277544 -2.645198246 -2.645198246
223 0 1 0 -2.645198246 -2.645198246 -2.645198246
224 0 1 0 -1.587118948 -2.645198246 -2.645198246
225 0 1 0 -0.5290396492 -2.645198246 -2.645198246
226 0 1 0 0.5290396492 -2.645198246 -2.645198246
227 0 1 0 1.587118948 -2.645198246 -2.645198246
228 0 1 0 2.645198246 -2.645198246 -2.645198246
229 0 1 0 3.703277544 -2.645198246 -2.645198246
230 0 1 0 4.761356843 -2.645198246 -2.645198246
231 0 1 0 -4.761356843 -1.587118948 -2.645198246
232 0 1 0 -3.703277544 -1.587118948 -2.645198246
233 0 1 0 -2.645198246 -1.587118948 -2.645198246
234 0 1 0 -1.587118948 -1.587118948 -2.645198246
235 0 1 0 -0.5290396492 -1.587118948 -2.645198246
236 0 1 0 0.5290396492 -1.587118948 -2.645198246
237 0 1 0 1.587118948 -1.587118948 -2.645198246
238 0 1 0 2.645198246 -1.587118948 -2.645198246
239 0 1 0 3.703277544 -1.587118948 -2.645198246
240 0 1 0 4.761356843 -1.587118948 -2.645198246
241 0 1 0 -4.761356843 -0.5290396492 -2.645198246
242 0 1 0 -3.703277544 -0.5290396492 -2.645198246
243 0 1 0 -2.645198246 -0.5290396492 -2.645198246
244 0 1 0 -1.587118948 -0.5290396492 -2.645198246
245 0 1 0 -0.5290396492 -0.5290396492 -2.645198246
246 0 1 0 0.5290396492 -0.5290396492 -2.645198246
247 0 1 0 1.587118948 -0.5290396492 -2.645198246
248 0 1 0 2.645198246 -0.5290396492 -2.645198246
249 0 1 0 3.703277544 -0.5290396492 -2.645198246
250 0 1 0 4.761356843 -0.5290396492 -2.645198246
251 0 1 0 -4.761356843 0.5290396492 -2.645198246
252 0 1 0 -3.703277544 0.5290396492 -2.645198246
253 0 1 0 -2.645198246 0.5290396492 -2.645198246
254 0 1 0 -1.587118948 0.5290396492 -2.645198246
255 0 1 0 -0.5290396492 0.5290396492 -2.645198246
256 0 1 0 0.5290396492 0.5290396492 -2.645198246
257 0 1 0 1.587118948 0.5290396492 -2.645198246
258 0 1 0 2.645198246 0.5290396492 -2.645198246
259 0 1 0 3.703277544 0.5290396492 -2.645198246
260 0 1 0 4.761356843 0.5290396492 -2.645198246
261 0 1 0 -4.761356843 1.587118948 -2.645198246
262 0 1 0 -3.703277544 1.587118948 -2.645198246
263 0 1 0 -2.645198246 1.587118948 -2.645198246
264 0 1 0 -1.587118948 1.587118948 -2.645198246
265 0 1 0 -0.5290396492 1.587118948 -2.645198246
266 0 1 0 0.5290396492 1.587118948 -2.645198246
267 0 1 0 1.587118948 1.587118948 -2.645198246
268 0 1 0 2.645198246 1.587118948 -2.645198246
269 0 1 0 3.703277544 1.587118948 -2.645198246
270 0 1 0 4.761356843 1.587118948 -2.645198246
271 0 1 0 -4.761356843 2.645198246 -2.645198246
272 0 1 0 -3.703277544 2.645198246 -2.645198246
273 0 1 0 -2.645198246 2.645198246 -2.645198246
274 0 1 0 -1.587118948 2.645198246 -2.645198246
275 0 1 0 -0.5290396492 2.645198246 -2.645198246
276 0 1 0 0.5290396492 2.645198246 -2.645198246
277 0 1 0 1.587118948 2.645198246 -2.645198246
278 0 1 0 2.645198246 2.645198246 -2.645198246
279 0 1 0 3.703277544 2.645198246 -2.645198246
280 0 1 0 4.761356843 2.645198246 -2.645198246
281 0 1 0 -4.761356843 3.703277544 -2.645198246
282 0 1 0 -3.703277544 3.703277544 -2.645198246
283 0 1 0 -2.645198246 3.703277544 -2.645198246
284 0 1 0 -1.587118948 3.703277544 -2.645198246
285 0 1 0 -0.5290396492 3.703277544 -2.645198246
286 0 1 0 0.5290396492 3.703277544 -2.645198246
287 0 1 0 1.587118948 3.703277544 -2.645198246
288 0 1 0 2.645198246 3.703277544 -2.645198246
289 0 1 0 3.703277544 3.703277544 -2.645198246
290 0 1 0 4.761356843 3.703277544 -2.645198246
291 0 1 0 -4.761356843 4.761356843 -2.645198246
292 0 1 0 -3.703277544 4.761356843 -2.645198246
293 0 1 0 -2.645198246 4.761356843 -2.645198246
294 0 1 0 -1.587118948 4.761356843 -2.645198246
295 0 1 0 -0.5290396492 4.761356843 -2.645198246
296 0 1 0 0.5290396492 4.761356843 -2.645198246
297 0 1 0 1.587118948 4.761356843 -2.645198246
298 0 1 0 2.645198246 4.761356843 -2.645198246
299 0 1 0 3.703277544 4.761356843 -2.645198246
300 0 1 0 4.761356843 4.761356843 -2.645198246
301 0 1 0 -4.761356843 -4.761356843 -1.587118948
302 0 1 0 -3.703277544 -4.761356843 -1.587118948
303 0 1 0 -2.645198246 -4.761356843 -1.587118948
304 0 1 0 -1.587118948 -4.761356843 -1.587118948
305 0 1 0 -0.5290396492 -4.761356843 -1.587118948
306 0 1 0 0.5290396492 -4.761356843 -1.587118948
307 0 1 0 1.587118948 -4.761356843 -1.587118948
308 0 1 0 2.645198246 -4.761356843 -1.587118948
309 0 1 0 3.703277544 -4.761356843 -1.587118948
310 0 1 0 4.761356843 -4.761356843 -1.587118948
311 0 1 0 -4.761356843 -3.703277544 -1.587118948
312 0 1 0 -3.703277544 -3.703277544 -1.587118948
313 0 1 0 -2.645198246 -3.703277544 -1.587118948
314 0 1 0 -1.587118948 -3.703277544 -1.587118948
315 0 1 0 -0.5290396492 -3.703277544 -1.587118948
316 0 1 0 0.5290396492 -3.703277544 -1.587118948
317 0 1 0 1.587118948 -3.703277544 -1.587118948
318 0 1 0 2.645198246 -3.703277544 -1.587118948
319 0 1 0 3.703277544 -3.703277544 -1.587118948
320 0 1 0 4.761356843 -3.703277544 -1.587118948
321 0 1 0 -4.761356843 -2.645198246 -1.587118948
322 0 1 0 -3.703277544 -2.645198246 -1.587118948
323 0 1 0 -2.645198246 -2.645198246 -1.587118948
324 0 1 0 -1.587118948 -2.645198246 -1.587118948
325 0 1 0 -0.5290396492 -2.645198246 -1.587118948
326 0 1 0 0.5290396492 -2.645198246 -1.587118948
327 0 1 0 1.587118948 -2.645198246 -1.587118948
328 0 1 0 2.645198246 -2.645198246 -1.587118948
329 0 1 0 3.703277544 -2.645198246 -1.587118948
330 0 1 0 4.761356843 -2.645198246 -1.587118948
331 0 1 0 -4.761356843 -1.587118948 -1.587118948
332 0 1 0 -3.703277544 -1.587118948 -1.587118948
333 0 1 0 -2.645198246 -1.587118948 -1.587118948
334 0 1 0 -1.587118948 -1.587118948 -1.587118948
335 0 1 0 -0.5290396492 -1.587118948 -1.587118948
336 0 1 0 0.5290396492 -1.587118948 -1.587118948
337 0 1 0 1.587118948 -1.587118948 -1.587118948
338 0 1 0 2.645198246 -1.587118948 -1.587118948
339 0 1 0 3.703277544 -1.587118948 -1.587118948
340 0 1 0 4.761356843 -1.587118948 -1.587118948
341 0 1 0 -4.761356843 -0.5290396492 -1.587118948
342 0 1 0 -3.703277544 -0.5290396492 -1.587118948
343 0 1 0 -2.645198246 -0.5290396492 -1.587118948
344 0 1 0 -1.587118948 -0.5290396492 -1.587118948
345 0 1 0 -0.5290396492 -0.5290396492 -1.587118948
346 0 1 0 0.5290396492 -0.5290396492 -1.587118948
347 0 1 0 1.587118948 -0.5290396492 -1.587118948
348 0 1 0 2.645198246 -0.5290396492 -1.587118948
349 0 1 0 3.703277544 -0.5290396492 -1.587118948
350 0 1 0 4.761356843 -0.5290396492 -1.587118948
351 0 1 0 -4.761356843 0.5290396492 -1.587118948
352 0 1 0 -3.703277544 0.5290396492 -1.587118948
353 0 1 0 -2.645198246 0.5290396492 -1.587118948
354 0 1 0 -1.587118948 0.5290396492 -1.587118948
355 0 1 0 -0.5290396492 0.5290396492 -1.587118948
356 0 1 0 0.5290396492 0.5290396492 -1.587118948
357 0 1 0 1.587118948 0.5290396492 -1.587118948
358 0 1 0 2.645198246 0.5290396492 -1.587118948
359 0 1 0 3.703277544 0.5290396492 -1.587118948
360 0 1 0 4.761356843 0.5290396492 -1.587118948
361 0 1 0 -4.761356843 1.587118948 -1.587118948
362 0 1 0 -3.703277544 1.587118948 -1.587118948
363 0 1 0 -2.645198246 1.587118948 -1.587118948
364 0 1 0 -1.587118948 1.587118948 -1.587118948
365 0 1 0 -0.5290396492 1.587118948 -1.587118948
366 0 1 0 0.5290396492 1.587118948 -1.587118948
367 0 1 0 1.587118948 1.587118948 -1.587118948
368 0 1 0 2.645198246 1.587118948 -1.587118948
369 0 1 0 3.703277544 1.587118948 -1.587118948
370 0 1 0 4.761356843 1.587118948 -1.587118948
371 0 1 0 -4.761356843 2.645198246 -1.587118948
372 0 1 0 -3.703277544 2.645198246 -1.587118948
373 0 1 0 -2.645198246 2.645198246 -1.587118948
374 0 1 0 -1.587118948 2.645198246 -1.587118948
375 0 1 0 -0.5290396492 2.645198246 -1.587118948
376 0 1 0 0.5290396492 2.645198246 -1.587118948
377 0 1 0 1.587118948 2.645198246 -1.587118948
378 0 1 0 2.645198246 2.645198246 -1.587118948
379 0 1 0 3.703277544 2.645198246 -1.587118948
380 0 1 0 4.761356843 2.645198246 -1.587118948
381 0 1 0 -4.761356843 3.703277544 -1.587118948
382 0 1 0 -3.703277544 3.703277544 -1.587118948
383 0 1 0 -2.645198246 3.703277544 -1.587118948
384 0 1 0 -1.587118948 3.703277544 -1.587118948
385 0 1 0 -0.5290396492 3.703277544 -1.587118948
386 0 1 0 0.5290396492 3.703277544 -1.587118948
387 0 1 0 1.587118948 3.703277544 -1.587118948
388 0 1 0 2.645198246 3.703277544 -1.587118948
389 0 1 0 3.703277544 3.703277544 -1.587118948
390 0 1 0 4.761356843 3.703277544 -1.587118948
391 0 1 0 -4.761356843 4.761356843 -1.587118948
392 0 1 0 -3.703277544 4.761356843 -1.587118948
393 0 1 0 -2.645198246 4.761356843 -1.587118948
394 0 1 0 -1.587118948 4.761356843 -1.587118948
395 0 1 0 -0.5290396492 4.761356843 -1.587118948
396 0 1 0 0.5290396492 4.761356843 -1.587118948
397 0 1 0 1.587118948 4.761356843 -1.587118948
398 0 1 0 2.645198246 4.761356843 -1.587118948
399 0 1 0 3.703277544 4.761356843 -1.587118948
400 0 1 0 4.761356843 4.761356843 -1.587118948
401 0 1 0 -4.761356843 -4.761356843 -0.5290396492
402 0 1 0 -3.703277544 -4.761356843 -0.5290396492
403 0 1 0 -2.645198246 -4.761356843 -0.5290396492
404 0 1 0 -1.587118948 -4.761356843 -0.5290396492
405 0 1 0 -0.5290396492 -4.761356843 -0.5290396492
406 0 1 0 0.5290396492 -4.761356843 -0.5290396492
407 0 1 0 1.587118948 -4.761356843 -0.5290396492
408 0 1 0 2.645198246 -4.761356843 -0.5290396492
409 0 1 0 3.703277544 -4.761356843 -0.5290396492
410 0 1 0 4.761356843 -4.761356843 -0.5290396492
411 0 1 0 -4.761356843 -3.703277544 -0.5290396492
412 0 1 0 -3.703277544 -3.703277544 -0.5290396492
413 0 1 0 -2.645198246 -3.703277544 -0.5290396492
414 0 1 0 -1.587118948 -3.703277544 -0.5290396492
415 0 1 0 -0.5290396492 -3.703277544 -0.5290396492
416 0 1 0 0.5290396492 -3.703277544 -0.5290396492
417 0 1 0 1.587118948 -3.703277544 -0.5290396492
418 0 1 0 2.645198246 -3.703277544 -0.5290396492
419 0 1 0 3.703277544 -3.703277544 -0.5290396492
420 0 1 0 4.761356843 -3.703277544 -0.5290396492
421 0 1 0 -4.761356843 -2.645198246 -0.5290396492
422 0 1 0 -3.703277544 -2.645198246 -0.5290396492
423 0 1 0 -2.645198246 -2.645198246 -0.5290396492
424 0 1 0 -1.587118948 -2.645198246 -0.5290396492
425 0 1 0 -0.5290396492 -2.645198246 -0.5290396492
426 0 1 0 0.5290396492 -2.645198246 -0.5290396492
427 0 1 0 1.587118948 -2.645198246 -0.5290396492
428 0 1 0 2.645198246 -2.645198246 -0.5290396492
429 0 1 0 3.703277544 -2.645198246 -0.5290396492
430 0 1 0 4.761356843 -2.645198246 -0.5290396492
431 0 1 0 -4.761356843 -1.587118948 -0.5290396492
432 0 1 0 -3.703277544 -1.587118948 -0.5290396492
433 0 1 0 -2.645198246 -1.587118948 -0.5290396492
434 0 1 0 -1.587118948 -1.587118948 -0.5290396492
435 0 1 0 -0.5290396492 -1.587118948 -0.5290396492
436 0 1 0 0.5290396492 -1.587118948 -0.5290396492
437 0 1 0 1.587118948 -1.587118948 -0.5290396492
438 0 1 0 2.645198246 -1.587118948 -0.5290396492
439 0 1 0 3.703277544 -1.587118948 -0.5290396492
440 0 1 0 4.761356843 -1.587118948 -0.5290396492
441 0 1 0 -4.761356843 -0.5290396492 -0.5290396492
442 0 1 0 -3.703277544 -0.5290396492 -0.5290396492
443 0 1 0 -2.645198246 -0.5290396492 -0.5290396492
444 0 1 0 -1.587118948 -0.5290396492 -0.5290396492
445 0 1 0 -0.5290396492 -0.5290396492 -0.5290396492
446 0 1 0 0.5290396492 -0.5290396492 -0.5290396492
447 0 1 0 1.587118948 -0.5290396492 -0.5290396492
448 0 1 0 2.645198246 -0.5290396492 -0.5290396492
449 0 1 0 3.703277544 -0.5290396492 -0.5290396492
450 0 1 0 4.761356843 -0.5290396492 -0.5290396492
451 0 1 0 -4.761356843 0.5290396492 -0.5290396492
452 0 1 0 -3.703277544 0.5290396492 -0.5290396492
453 0 1 0 -2.645198246 0.5290396492 -0.5290396492
454 0 1 0 -1.587118948 0.5290396492 -0.5290396492
455 0 1 0 -0.5290396492 0.5290396492 -0.5290396492
456 0 1 0 0.5290396492 0.5290396492 -0.5290396492
457 0 1 0 1.587118948 0.5290396492 -0.5290396492
458 0 1 0 2.645198246 0.5290396492 -0.5290396492
459 0 1 0 3.703277544 0.5290396492 -0.5290396492
460 0 1 0 4.761356843 0.5290396492 -0.5290396492
461 0 1 0 -4.761356843 1.587118948 -0.5290396492
462 0 1 0 -3.703277544 1.587118948 -0.5290396492
463 0 1 0 -2.645198246 1.587118948 -0.5290396492
464 0 1 0 -1.587118948 1.587118948 -0.5290396492
465 0 1 0 -0.5290396492 1.587118948 -0.5290396492
466 0 1 0 0.5290396492 1.587118948 -0.5290396492
467 0 1 0 1.587118948 1.587118948 -0.5290396492
468 0 1 0 2.645198246 1.587118948 -0.5290396492
469 0 1 0 3.703277544 1.587118948 -0.5290396492
470 0 1 0 4.761356843 1.587118948 -0.5290396492
471 0 1 0 -4.761356843 2.645198246 -0.5290396492
472 0 1 0 -3.703277544 2.645198246 -0.5290396492
473 0 1 0 -2.645198246 2.645198246 -0.5290396492
474 0 1 0 -1.587118948 2.645198246 -0.5290396492
475 0 1 0 -0.5290396492 2.645198246 -0.5290396492
476 0 1 0 0.5290396492 2.645198246 -0.5290396492
477 0 1 0 1.587118948 2.645198246 -0.5290396492
478 0 1 0 2.645198246 2.645198246 -0.5290396492
479 0 1 0 3.703277544 2.645198246 -0.5290396492
480 0 1 0 4.761356843 2.645198246 -0.5290396492
481 0 1 0 -4.761356843 3.703277544 -0.5290396492
482 0 1 0 -3.703277544 3.703277544 -0.5290396492
483 0 1 0 -2.645198246 3.703277544 -0.5290396492
484 0 1 0 -1.587118948 3.703277544 -0.5290396492
485 0 1 0 -0.5290396492 3.703277544 -0.5290396492
486 0 1 0 0.5290396492 3.703277544 -0.5290396492
487 0 1 0 1.587118948 3.703277544 -0.5290396492
488 0 1 0 2.645198246 3.703277544 -0.5290396492
489 0 1 0 3.703277544 3.703277544 -0.5290396492
490 0 1 0 4.761356843 3.703277544 -0.5290396492
491 0 1 0 -4.761356843 4.761356843 -0.5290396492
492 0 1 0 -3.703277544 4.761356843 -0.5290396492
493 0 1 0 -2.645198246 4.761356843 -0.5290396492
494 0 1 0 -1.587118948 4.761356843 -0.5290396492
495 0 1 0 -0.5290396492 4.761356843 -0.5290396492
496 0 1 0 0.5290396492 4.761356843 -0.5290396492
497 0 1 0 1.587118948 4.761356843 -0.5290396492
498 0 1 0 2.645198246 4.761356843 -0.5290396492
499 0 1 0 3.703277544 4.761356843 -0.5290396492
500 0 1 0 4.761356843 4.761356843 -0.5290396492
501 0 1 0 -4.761356843 -4.761356843 0.5290396492
502 0 1 0 -3.703277544 -4.761356843 0.5290396492
503 0 1 0 -2.645198246 -4.761356843 0.5290396492
504 0 1 0 -1.587118948 -4.761356843 0.5290396492
505 0 1 0 -0.5290396492 -4.761356843 0.5290396492
506 0 1 0 0.5290396492 -4.761356843 0.5290396492
507 0 1 0 1.587118948 -4.761356843 0.5290396492
508 0 1 0 2.645198246 -4.761356843 0.5290396492
509 0 1 0 3.703277544 -4.761356843 0.5290396492
510 0 1 0 4.761356843 -4.761356843 0.5290396492
511 0 1 0 -4.761356843 -3.703277544 0.5290396492
512 0 1 0 -3.703277544 -3.703277544 0.5290396492
513 0 1 0 -2.645198246 -3.703277544 0.5290396492
514 0 1 0 -1.587118948 -3.703277544 0.5290396492
515 0 1 0 -0.5290396492 -3.703277544 0.5290396492
516 0 1 0 0.5290396492 -3.703277544 0.5290396492
517 0 1 0 1.587118948 -3.703277544 0.5290396492
518 0 1 0 2.645198246 -3.703277544 0.5290396492
519 0 1 0 3.703277544 -3.703277544 0.5290396492
520 0 1 0 4.761356843 -3.703277544 0.5290396492
521 0 1 0 -4.761356843 -2.645198246 0.5290396492
522 0 1 0 -3.703277544 -2.645198246 0.5290396492
523 0 1 0 -2.645198246 -2.645198246 0.5290396492
524 0 1 0 -1.587118948 -2.645198246 0.5290396492
525 0 1 0 -0.5290396492 -2.645198246 0.5290396492
526 0 1 0 0.5290396492 -2.645198246 0.5290396492
527 0 1 0 1.587118948 -2.645198246 0.5290396492
528 0 1 0 2.645198246 -2.645198246 0.5290396492
529 0 1 0 3.703277544 -2.645198246 0.5290396492
530 0 1 0 4.761356843 -2.645198246 0.5290396492
531 0 1 0 -4.761356843 -1.587118948 0.5290396492
532 0 1 0 -3.703277544 -1.587118948 0.5290396492
533 0 1 0 -2.645198246 -1.587118948 0.5290396492
534 0 1 0 -1.587118948 -1.587118948 0.5290396492
535 0 1 0 -0.5290396492 -1.587118948 0.5290396492
536 0 1 0 0.5290396492 -1.587118948 0.5290396492
537 0 1 0 1.587118948 -1.587118948 0.5290396492
538 0 1 0 2.645198246 -1.587118948 0.5290396492
539 0 1 0 3.703277544 -1.587118948 0.5290396492
540 0 1 0 4.761356843 -1.587118948 0.5290396492
541 0 1 0 -4.761356843 -0.5290396492 0.5290396492
542 0 1 0 -3.703277544 -0.5290396492 0.5290396492
543 0 1 0 -2.645198246 -0.5290396492 0.5290396492
544 0 1 0 -1.587118948 -0.5290396492 0.5290396492
545 0 1 0 -0.5290396492 -0.5290396492 0.5290396492
546 0 1 0 0.5290396492 -0.5290396492 0.5290396492
547 0 1 0 1.587118948 -0.5290396492 0.5290396492
548 0 1 0 2.645198246 -0.5290396492 0.5290396492
549 0 1 0 3.703277544 -0.5290396492 0.5290396492
550 0 1 0 4.761356843 -0.5290396492 0.5290396492
551 0 1 0 -4.761356843 0.5290396492 0.5290396492
552 0 1 0 -3.703277544 0.5290396492 0.5290396492
553 0 1 0 -2.645198246 0.5290396492 0.5290396492
554 0 1 0 -1.587118948 0.5290396492 0.5290396492
555 0 1 0 -0.5290396492 0.5290396492 0.5290396492
556 0 1 0 0.5290396492 0.5290396492 0.5290396492
557 0 1 0 1.587118948 0.5290396492 0.5290396492
558 0 1 0 2.645198246 0.5290396492 0.5290396492
559 0 1 0 3.703277544 0.5290396492 0.5290396492
560 0 1 0 4.761356843 0.5290396492 0.5290396492
561 0 1 0 -4.761356843 1.587118948 0.5290396492
562 0 1 0 -3.703277544 1.587118948 0.5290396492
563 0 1 0 -2.645198246 1.587118948 0.5290396492
564 0 1 0 -1.587118948 1.587118948 0.5290396492
565 0 1 0 -0.5290396492 1.587118948 0.5290396492
566 0 1 0 0.5290396492 1.587118948 0.5290396492
567 0 1 0 1.587118948 1.587118948 0.5290396492
568 0 1 0 2.645198246 1.587118948 0.5290396492
569 0 1 0 3.703277544 1.587118948 0.5290396492
570 0 1 0 4.761356843 1.587118948 0.5290396492
571 0 1 0 -4.761356843 2.645198246 0.5290396492
572 0 1 0 -3.703277544 2.645198246 0.5290396492
573 0 1 0 -2.645198246 2.645198246 0.5290396492
574 0 1 0 -1.587118948 2.645198246 0.5290396492
575 0 1 0 -0.5290396492 2.645198246 0.5290396492
576 0 1 0 0.5290396492 2.645198246 0.5290396492
577 0 1 0 1.587118948 2.645198246 0.5290396492
578 0 1 0 2.645198246 2.645198246 0.5290396492
579 0 1 0 3.703277544 2.645198246 0.5290396492
580 0 1 0 4.761356843 2.645198246 0.5290396492
581 0 1 0 -4.761356843 3.703277544 0.5290396492
582 0 1 0 -3.703277544 3.703277544 0.5290396492
583 0 1 0 -2.645198246 3.703277544 0.5290396492
584 0 1 0 -1.587118948 3.703277544 0.5290396492
585 0 1 0 -0.5290396492 3.703277544 0.5290396492
586 0 1 0 0.5290396492 3.703277544 0.5290396492
587 0 1 0 1.587118948 3.703277544 0.5290396492
588 0 1 0 2.645198246 3.703277544 0.5290396492
589 0 1 0 3.703277544 3.703277544 0.5290396492
590 0 1 0 4.761356843 3.703277544 0.5290396492
591 0 1 0 -4.761356843 4.761356843 0.5290396492
592 0 1 0 -3.703277544 4.761356843 0.5290396492
593 0 1 0 -2.645198246 4.761356843 0.5290396492
594 0 1 0 -1.587118948 4.761356843 0.5290396492
595 0 1 0 -0.5290396492 4.761356843 0.5290396492
596 0 1 0 0.5290396492 4.761356843 0.5290396492
597 0 1 0 1.587118948 4.761356843 0.5290396492
598 0 1 0 2.645198246 4.761356843 0.5290396492
599 0 1 0 3.703277544 4.761356843 0.5290396492
600 0 1 0 4.761356843 4.761356843 0.5290396492
601 0 1 0 -4.761356843 -4.761356843 1.587118948
602 0 1 0 -3.703277544 -4.761356843 1.587118948
603 0 1 0 -2.645198246 -4.761356843 1.587118948
604 0 1 0 -1.587118948 -4.761356843 1.587118948
605 0 1 0 -0.5290396492 -4.761356843 1.587118948
606 0 1 0 0.5290396492 -4.761356843 1.587118948
607 0 1 0 1.587118948 -4.761356843 1.587118948
608 0 1 0 2.645198246 -4.761356843 1.587118948
609 0 1 0 3.703277544 -4.761356843 1.587118948
610 0 1 0 4.761356843 -4.761356843 1.587118948
611 0 1 0 -4.761356843 -3.703277544 1.587118948
612 0 1 0 -3.703277544 -3.703277544 1.587118948
613 0 1 0 -2.645198246 -3.703277544 1.587118948
614 0 1 0 -1.587118948 -3.703277544 1.587118948
615 0 1 0 -0.5290396492 -3.703277544 1.587118948
616 0 1 0 0.5290396492 -3.703277544 1.587118948