GENERATED DL_POLY CONFIG                                                
2 1 216                                                                 
17.3069948437 0.0 0.0                                                   
0.0 17.3069948437 0.0                                                   
0.0 0.0 17.3069948437                                                   
Na 1                                                                    
-7.21124785154 -7.21124785154 -7.21124785154                            
0.113148730972 0.136837326176 -0.14046994113                            
0.0 1.0 2.0                                                             
Na 2                                                                    
-7.21124785154 -7.21124785154 -1.44224957031                            
0.0526598990819 0.00958570644325 0.118723832404                         
1.0 2.0 3.0                                                             
Na 3                                                                    
-7.21124785154 -7.21124785154 4.32674871092                             
0.0754487818074 -0.0542415516901 -0.0469843430012                       
2.0 3.0 4.0                                                             
Na 4                                                                    
-7.21124785154 -4.32674871092 -4.32674871092                            
0.0692432989202 0.0780545764268 0.0670655725209                         
3.0 4.0 5.0                                                             
Na 5                                                                    
-7.21124785154 -4.32674871092 1.44224957031                             
0.094463609811 -0.0828785414715 -0.0035503420291                        
4.0 5.0 6.0                                                             
Na 6                                                                    
-7.21124785154 -4.32674871092 7.21124785154                             
0.0687977818 -0.0588037967908 0.1638895857                              
5.0 6.0 7.0                                                             
Na 7                                                                    
-7.21124785154 -1.44224957031 -7.21124785154                            
-0.029258106051 0.0792083312592 0.0484725765637                         
6.0 7.0 8.0                                                             
Na 8                                                                    
-7.21124785154 -1.44224957031 -1.44224957031                            
0.0679068369251 -0.0908402494058 0.0197927962594                        
7.0 8.0 9.0                                                             
Na 9                                                                    
-7.21124785154 -1.44224957031 4.32674871092                             
0.0118155742005 -0.191877991409 0.0572476119414                         
8.0 9.0 10.0                                                            
Na 10                                                                   
-7.21124785154 1.44224957031 -4.32674871092                             
0.114617333726 -0.184119229961 0.151241762421                           
9.0 10.0 11.0                                                           
Na 11                                                                   
-7.21124785154 1.44224957031 1.44224957031                              
-0.147670560286 -0.110923022122 -0.0246196941489                        
10.0 11.0 12.0                                                          
Na 12                                                                   
-7.21124785154 1.44224957031 7.21124785154                              
-0.101346710516 -0.149386017461 -0.039284917916                         
11.0 12.0 13.0                                                          
Na 13                                                                   
-7.21124785154 4.32674871092 -7.21124785154                             
0.0979050784134 -0.0966532577008 0.274721353479                         
12.0 13.0 14.0                                                          
Na 14                                                                   
-7.21124785154 4.32674871092 -1.44224957031                             
0.0664621473119 0.195154476805 0.0329694498674                          
13.0 14.0 15.0                                                          
Na 15                                                                   
-7.21124785154 4.32674871092 4.32674871092                              
-0.0423816733107 -0.0430090832001 0.117921443338                        
14.0 15.0 16.0                                                          
Na 16                                                                   
-7.21124785154 7.21124785154 -4.32674871092                             
0.108657425787 -0.120463216187 -0.0657094435697                         
15.0 16.0 17.0                                                          
Na 17                                                                   
-7.21124785154 7.21124785154 1.44224957031                              
-0.245108582829 0.0567439623286 0.013263006888                          
16.0 17.0 18.0                                                          
Na 18                                                                   
-7.21124785154 7.21124785154 7.21124785154                              
0.0707749020656 -0.133609912646 0.00998943800139                        
17.0 18.0 19.0                                                          
Na 19                                                                   
-4.32674871092 -7.21124785154 -4.32674871092                            
-0.0284124668384 -0.16123696199 -0.180117139281                         
18.0 19.0 20.0                                                          
Na 20                                                                   
-4.32674871092 -7.21124785154 1.44224957031                             
0.0783758081084 -0.0340122216422 0.0192287847015                        
19.0 20.0 21.0                                                          
Na 21                                                                   
-4.32674871092 -7.21124785154 7.21124785154                             
0.189836114172 0.108161407979 -0.0216874218119                          
20.0 21.0 22.0                                                          
Na 22                                                                   
-4.32674871092 -4.32674871092 -7.21124785154                            
-0.0123005290466 0.0622537607692 0.0558124986033                        
21.0 22.0 23.0                                                          
Na 23                                                                   
-4.32674871092 -4.32674871092 -1.44224957031                            
-0.139541473544 -0.0343407097305 -0.0490159840047                       
22.0 23.0 24.0                                                          
Na 24                                                                   
-4.32674871092 -4.32674871092 4.32674871092                             
-0.00753896103375 0.116648123018 -0.0179598171005                       
23.0 24.0 25.0                                                          
Na 25                                                                   
-4.32674871092 -1.44224957031 -4.32674871092                            
0.0463479193054 -0.0992110415659 0.026610914259                         
24.0 25.0 26.0                                                          
Na 26                                                                   
-4.32674871092 -1.44224957031 1.44224957031                             
-0.160848308509 0.118935660378 0.081792547179                           
25.0 26.0 27.0                                                          
Na 27                                                                   
-4.32674871092 -1.44224957031 7.21124785154                             
0.0232612957367 -0.0963130060717 0.00330934787488                       
26.0 27.0 28.0                                                          
Na 28                                                                   
-4.32674871092 1.44224957031 -7.21124785154                             
-0.00227822314448 0.174520450467 0.0516835185007                        
27.0 28.0 29.0                                                          
Na 29                                                                   
-4.32674871092 1.44224957031 -1.44224957031                             
0.0577352381782 -0.127297136563 -0.0462815668117                        
28.0 29.0 30.0                                                          
Na 30                                                                   
-4.32674871092 1.44224957031 4.32674871092                              
-0.00292638192865 0.0684469296147 -0.0753609161024                      
29.0 30.0 31.0                                                          
Na 31                                                                   
-4.32674871092 4.32674871092 -4.32674871092                             
0.0473928044847 -0.275323477125 0.0141098853747                         
30.0 31.0 32.0                                                          
Na 32                                                                   
-4.32674871092 4.32674871092 1.44224957031                              
0.0709263786166 -0.0709670364989 0.00270395121448                       
31.0 32.0 33.0                                                          
Na 33                                                                   
-4.32674871092 4.32674871092 7.21124785154                              
-0.0518732669932 -0.121251648438 0.0433051468374                        
32.0 33.0 34.0                                                          
Na 34                                                                   
-4.32674871092 7.21124785154 -7.21124785154                             
-0.156407625176 0.0859034286842 -0.00900169475145                       
33.0 34.0 35.0                                                          
Na 35                                                                   
-4.32674871092 7.21124785154 -1.44224957031                             
0.205831525646 -0.0674961201392 -0.0788635211347                        
34.0 35.0 36.0                                                          
Na 36                                                                   
-4.32674871092 7.21124785154 4.32674871092                              
0.00240313928971 0.0788780354931 0.134652237849                         
35.0 36.0 37.0                                                          
Na 37                                                                   
-1.44224957031 -7.21124785154 -7.21124785154                            
-0.0701189817638 -0.0622381163074 0.0637197922959                       
36.0 37.0 38.0                                                          
Na 38                                                                   
-1.44224957031 -7.21124785154 -1.44224957031                            
-0.0215585304332 -0.0281860530659 -0.00384452936971                     
37.0 38.0 39.0                                                          
Na 39                                                                   
-1.44224957031 -7.21124785154 4.32674871092                             
-0.00797904184782 0.0472253516849 -0.0691870453228                      
38.0 39.0 40.0                                                          
Na 40                                                                   
-1.44224957031 -4.32674871092 -4.32674871092                            
0.110494717094 0.201622029643 -0.039202244638                           
39.0 40.0 41.0                                                          
Na 41                                                                   
-1.44224957031 -4.32674871092 1.44224957031                             
0.098092143825 0.130563028936 -0.179424021228                           
40.0 41.0 42.0                                                          
Na 42                                                                   
-1.44224957031 -4.32674871092 7.21124785154                             
-0.074266403864 0.089417761937 0.00242060670268                         
41.0 42.0 43.0                                                          
Na 43                                                                   
-1.44224957031 -1.44224957031 -7.21124785154                            
-0.0725734575691 -0.0963792098249 0.292147035578                        
42.0 43.0 44.0                                                          
Na 44                                                                   
-1.44224957031 -1.44224957031 -1.44224957031                            
-0.152077689928 0.0944468786376 -0.0835788366371                        
43.0 44.0 45.0                                                          
Na 45                                                                   
-1.44224957031 -1.44224957031 4.32674871092                             
-0.0156118401343 -0.103038176249 -0.186953764874                        
44.0 45.0 46.0                                                          
Na 46                                                                   
-1.44224957031 1.44224957031 -4.32674871092                             
-0.186369567048 0.0535468234258 -0.051637627191                         
45.0 46.0 47.0                                                          
Na 47                                                                   
-1.44224957031 1.44224957031 1.44224957031                              
-0.0179571787231 -0.112456204089 0.00599327143344                       
46.0 47.0 48.0                                                          
Na 48                                                                   
-1.44224957031 1.44224957031 7.21124785154                              
0.116226136954 -0.0935813830585 -0.0648217430582                        
47.0 48.0 49.0                                                          
Na 49                                                                   
-1.44224957031 4.32674871092 -7.21124785154                             
-0.00073520589141 0.120706641708 -0.190533382067                        
48.0 49.0 50.0                                                          
Na 50                                                                   
-1.44224957031 4.32674871092 -1.44224957031                             
0.103749216508 0.0552592339405 -0.0241269380779                         
49.0 50.0 51.0                                                          
Na 51                                                                   
-1.44224957031 4.32674871092 4.32674871092                              
0.0124017804991 0.0906013872327 0.153958168658                          
50.0 51.0 52.0                                                          
Na 52                                                                   
-1.44224957031 7.21124785154 -4.32674871092                             
0.0508327063963 0.185652884258 0.156306531546                           
51.0 52.0 53.0                                                          
Na 53                                                                   
-1.44224957031 7.21124785154 1.44224957031                              
0.0122812146525 -0.0911147045153 -0.0317808427336                       
52.0 53.0 54.0                                                          
Na 54                                                                   
-1.44224957031 7.21124785154 7.21124785154                              
-0.102756688618 0.122532127072 0.154847491813                           
53.0 54.0 55.0                                                          
Na 55                                                                   
1.44224957031 -7.21124785154 -4.32674871092                             
0.0789116912677 -0.0202973870715 0.124969356578                         
54.0 55.0 56.0                                                          
Na 56                                                                   
1.44224957031 -7.21124785154 1.44224957031                              
0.123924302345 -0.080514607524 0.0594947820899                          
55.0 56.0 57.0                                                          
Na 57                                                                   
1.44224957031 -7.21124785154 7.21124785154                              
0.0615964553596 0.183598450411 -0.0324311257182                         
56.0 57.0 58.0                                                          
Na 58                                                                   
1.44224957031 -4.32674871092 -7.21124785154                             
-0.0366731169075 -0.00768033373331 -0.0677674182891                     
57.0 58.0 59.0                                                          
Na 59                                                                   
1.44224957031 -4.32674871092 -1.44224957031                             
-0.164596373581 0.147866696779 -0.0128868674419                         
58.0 59.0 60.0                                                          
Na 60                                                                   
1.44224957031 -4.32674871092 4.32674871092                              
0.1079424643 0.0822419534503 -0.0124930946823                           
59.0 60.0 61.0                                                          
Na 61                                                                   
1.44224957031 -1.44224957031 -4.32674871092                             
-0.00653686251149 0.132338940267 0.055072222883                         
60.0 61.0 62.0                                                          
Na 62                                                                   
1.44224957031 -1.44224957031 1.44224957031                              
-0.0189152383092 -0.0083037630285 -0.0456748899666                      
61.0 62.0 63.0                                                          
Na 63                                                                   
1.44224957031 -1.44224957031 7.21124785154                              
-0.0921157337398 -0.0351706604904 0.0442250996797                       
62.0 63.0 64.0                                                          
Na 64                                                                   
1.44224957031 1.44224957031 -7.21124785154                              
0.0790075755192 -0.077528325866 -0.0125617958795                        
63.0 64.0 65.0                                                          
Na 65                                                                   
1.44224957031 1.44224957031 -1.44224957031                              
0.00737957460074 -0.0432695683856 -0.101685366553                       
64.0 65.0 66.0                                                          
Na 66                                                                   
1.44224957031 1.44224957031 4.32674871092                               
0.0870656092974 -0.0180265162139 0.0735570237559                        
65.0 66.0 67.0                                                          
Na 67                                                                   
1.44224957031 4.32674871092 -4.32674871092                              
-0.0874234937954 0.0238580193998 -0.19088618485                         
66.0 67.0 68.0                                                          
Na 68                                                                   
1.44224957031 4.32674871092 1.44224957031                               
-0.0424755007309 -0.00421708896633 0.12571341885                        
67.0 68.0 69.0                                                          
Na 69                                                                   
1.44224957031 4.32674871092 7.21124785154                               
0.191368767644 -0.0130901107716 0.0557857197746                         
68.0 69.0 70.0                                                          
Na 70                                                                   
1.44224957031 7.21124785154 -7.21124785154                              
-0.150145801598 -0.00441810784572 -0.078405504359                       
69.0 70.0 71.0                                                          
Na 71                                                                   
1.44224957031 7.21124785154 -1.44224957031                              
0.0773222605353 0.0635810249221 0.113896806275                          
70.0 71.0 72.0                                                          
Na 72                                                                   
1.44224957031 7.21124785154 4.32674871092                               
-0.0413365849409 -0.0963117071818 0.0687446441178                       
71.0 72.0 73.0                                                          
Na 73                                                                   
4.32674871092 -7.21124785154 -7.21124785154                             
-0.118948948507 0.0034289337304 0.0516033595623                         
72.0 73.0 74.0                                                          
Na 74                                                                   
4.32674871092 -7.21124785154 -1.44224957031                             
-0.0800518819492 0.150708408111 -0.101672930343                         
73.0 74.0 75.0                                                          
Na 75                                                                   
4.32674871092 -7.21124785154 4.32674871092                              
0.0954018566353 0.0228894837164 -0.179243624563                         
74.0 75.0 76.0                                                          
Na 76                                                                   
4.32674871092 -4.32674871092 -4.32674871092                             
-0.0130922472031 0.074914095231 -0.0578481437147                        
75.0 76.0 77.0                                                          
Na 77                                                                   
4.32674871092 -4.32674871092 1.44224957031                              
0.046092570912 -0.017281749938 -0.0770218531251                         
76.0 77.0 78.0                                                          
Na 78                                                                   
4.32674871092 -4.32674871092 7.21124785154                              
-0.00843742345991 0.144039111767 -0.0668966511878                       
77.0 78.0 79.0                                                          
Na 79                                                                   
4.32674871092 -1.44224957031 -7.21124785154                             
0.00809470750667 -0.117947583863 -0.00201893921497                      
78.0 79.0 80.0                                                          
Na 80                                                                   
4.32674871092 -1.44224957031 -1.44224957031                             
0.104524554151 0.0146569605644 0.0665379485599                          
79.0 80.0 81.0                                                          
Na 81                                                                   
4.32674871092 -1.44224957031 4.32674871092                              
-0.0619766884945 -0.0653100146577 0.053656829173                        
80.0 81.0 82.0                                                          
Na 82                                                                   
4.32674871092 1.44224957031 -4.32674871092                              
0.0827802750347 0.0230459540816 -0.00324615535916                       
81.0 82.0 83.0                                                          
Na 83                                                                   
4.32674871092 1.44224957031 1.44224957031                               
0.067349222965 -0.0130011824734 -0.0451522091233                        
82.0 83.0 84.0                                                          
Na 84                                                                   
4.32674871092 1.44224957031 7.21124785154                               
0.00335787597459 0.0845251516368 0.0441514526814                        
83.0 84.0 85.0                                                          
Na 85                                                                   
4.32674871092 4.32674871092 -7.21124785154                              
-0.00852185996507 0.0196390346162 0.200430532292                        
84.0 85.0 86.0                                                          
Na 86                                                                   
4.32674871092 4.32674871092 -1.44224957031                              
0.0593263917655 -0.0477980649972 -0.0366318508466                       
85.0 86.0 87.0                                                          
Na 87                                                                   
4.32674871092 4.32674871092 4.32674871092                               
0.107045698685 -0.0617172007275 -0.0172040380609                        
86.0 87.0 88.0                                                          
Na 88                                                                   
4.32674871092 7.21124785154 -4.32674871092                              
-0.112979782477 0.184977918464 -0.00283200748676                        
87.0 88.0 89.0                                                          
Na 89                                                                   
4.32674871092 7.21124785154 1.44224957031                               
0.122416620712 -0.0832524312663 -0.00661781956366                       
88.0 89.0 90.0                                                          
Na 90                                                                   
4.32674871092 7.21124785154 7.21124785154                               
0.0615053457892 0.0134350566339 -0.135992614327                         
89.0 90.0 91.0                                                          
Na 91                                                                   
7.21124785154 -7.21124785154 -4.32674871092                             
0.0722456891621 0.178744396672 -0.0751883074474                         
90.0 91.0 92.0                                                          
Na 92                                                                   
7.21124785154 -7.21124785154 1.44224957031                              
-0.0208146852922 -0.0666704676037 -0.0772550218685                      
91.0 92.0 93.0                                                          
Na 93                                                                   
7.21124785154 -7.21124785154 7.21124785154                              
-0.0316648073231 -0.0999225069887 -0.119639592944                       
92.0 93.0 94.0                                                          
Na 94                                                                   
7.21124785154 -4.32674871092 -7.21124785154                             
0.213559412405 -0.135970035763 0.0365303637061                          
93.0 94.0 95.0                                                          
Na 95                                                                   
7.21124785154 -4.32674871092 -1.44224957031                             
0.216963606595 -0.00443400662561 -0.008285114132                        
94.0 95.0 96.0                                                          
Na 96                                                                   
7.21124785154 -4.32674871092 4.32674871092                              
-0.132562575777 0.091064307077 -0.0212755556476                         
95.0 96.0 97.0                                                          
Na 97                                                                   
7.21124785154 -1.44224957031 -4.32674871092                             
0.0354721207284 0.0433136907245 0.0458368794672                         
96.0 97.0 98.0                                                          
Na 98                                                                   
7.21124785154 -1.44224957031 1.44224957031                              
0.180616478158 0.160938753106 0.0928951980395                           
97.0 98.0 99.0                                                          
Na 99                                                                   
7.21124785154 -1.44224957031 7.21124785154                              
0.0673732526166 0.0440135380678 -0.13172209723                          
98.0 99.0 100.0                                                         
Na 100                                                                  
7.21124785154 1.44224957031 -7.21124785154                              
0.0182240863347 0.0699131885908 -0.0064142321965                        
99.0 100.0 101.0                                                        
Na 101                                                                  
7.21124785154 1.44224957031 -1.44224957031                              
-0.14671486728 0.0276101896684 0.15640724304                            
100.0 101.0 102.0                                                       
Na 102                                                                  
7.21124785154 1.44224957031 4.32674871092                               
-0.0791883154273 0.0152740583916 -0.192493606046                        
101.0 102.0 103.0                                                       
Na 103                                                                  
7.21124785154 4.32674871092 -4.32674871092                              
-0.272332059598 -0.184047012488 0.0315216592769                         
102.0 103.0 104.0                                                       
Na 104                                                                  
7.21124785154 4.32674871092 1.44224957031                               
0.0441298443254 0.0360386462886 -0.0763990905647                        
103.0 104.0 105.0                                                       
Na 105                                                                  
7.21124785154 4.32674871092 7.21124785154                               
-0.0573691247169 -0.0185534352576 0.00314666224918                      
104.0 105.0 106.0                                                       
Na 106                                                                  
7.21124785154 7.21124785154 -7.21124785154                              
-0.145178340819 -0.113385376727 0.0366659474183                         
105.0 106.0 107.0                                                       
Na 107                                                                  
7.21124785154 7.21124785154 -1.44224957031                              
0.0331133683446 -0.140710897399 0.0965416372069                         
106.0 107.0 108.0                                                       
Na 108                                                                  
7.21124785154 7.21124785154 4.32674871092                               
-0.0660619397035 -0.0209443292638 -0.0745491757217                      
107.0 108.0 109.0                                                       
Cl 109                                                                  
7.21124785154 7.21124785154 7.21124785154                               
-0.174752849059 -0.18361835294 0.0437186373361                          
108.0 109.0 110.0                                                       
Cl 110                                                                  
7.21124785154 7.21124785154 1.44224957031                               
-0.0647456267589 0.0988978339617 -0.0599964085348                       
109.0 110.0 111.0                                                       
Cl 111                                                                  
7.21124785154 7.21124785154 -4.32674871092                              
0.2034372073 -0.145724604933 0.0191608591805                            
110.0 111.0 112.0                                                       
Cl 112                                                                  
7.21124785154 4.32674871092 4.32674871092                               
0.0679521820132 0.104857146996 -0.0568666098474                         
111.0 112.0 113.0                                                       
Cl 113                                                                  
7.21124785154 4.32674871092 -1.44224957031                              
-0.0611611569577 0.0797823415795 0.322453366668                         
112.0 113.0 114.0                                                       
Cl 114                                                                  
7.21124785154 4.32674871092 -7.21124785154                              
-0.2114248878 0.0396284167131 0.0228376388592                           
113.0 114.0 115.0                                                       
Cl 115                                                                  
7.21124785154 1.44224957031 7.21124785154                               
-0.0450291874619 -0.0837331360452 -0.111110455843                       
114.0 115.0 116.0                                                       
Cl 116                                                                  
7.21124785154 1.44224957031 1.44224957031                               
-0.0298280246757 -0.0346985641184 0.0420838084466                       
115.0 116.0 117.0                                                       
Cl 117                                                                  
7.21124785154 1.44224957031 -4.32674871092                              
-0.0396660265948 -0.098398407719 0.0696877080502                        
116.0 117.0 118.0                                                       
Cl 118                                                                  
7.21124785154 -1.44224957031 4.32674871092                              
-0.13791745755 -0.0897938056204 0.0060654865753                         
117.0 118.0 119.0                                                       
Cl 119                                                                  
7.21124785154 -1.44224957031 -1.44224957031                             
-0.0125448999497 -0.19296519949 0.153485585252                          
118.0 119.0 120.0                                                       
Cl 120                                                                  
7.21124785154 -1.44224957031 -7.21124785154                             
-0.0335466577207 0.137162051884 0.090557923288                          
119.0 120.0 121.0                                                       
Cl 121                                                                  
7.21124785154 -4.32674871092 7.21124785154                              
0.0792081067093 0.092188534454 -0.137092299056                          
120.0 121.0 122.0                                                       
Cl 122                                                                  
7.21124785154 -4.32674871092 1.44224957031                              
-0.00286961355048 0.0638321655688 -0.0971951930464                      
121.0 122.0 123.0                                                       
Cl 123                                                                  
7.21124785154 -4.32674871092 -4.32674871092                             
0.191362990566 -0.0820531831935 -0.147614009848                         
122.0 123.0 124.0                                                       
Cl 124                                                                  
7.21124785154 -7.21124785154 4.32674871092                              
0.16254969985 -0.107325994363 0.046504658185                            
123.0 124.0 125.0                                                       
Cl 125                                                                  
7.21124785154 -7.21124785154 -1.44224957031                             
0.193223616794 -0.139169439806 0.027241137408                           
124.0 125.0 126.0                                                       
Cl 126                                                                  
7.21124785154 -7.21124785154 -7.21124785154                             
-0.171194851771 -0.0921451668047 -0.0329841245105                       
125.0 126.0 127.0                                                       
Cl 127                                                                  
4.32674871092 7.21124785154 4.32674871092                               
0.262702527643 -0.131619379145 0.0587325589563                          
126.0 127.0 128.0                                                       
Cl 128                                                                  
4.32674871092 7.21124785154 -1.44224957031                              
-0.0346081219182 -0.00641565937996 0.0991576480968                      
127.0 128.0 129.0                                                       
Cl 129                                                                  
4.32674871092 7.21124785154 -7.21124785154                              
0.0246587163611 -0.00964925688013 -0.0259025751595                      
128.0 129.0 130.0                                                       
Cl 130                                                                  
4.32674871092 4.32674871092 7.21124785154                               
0.0595647041418 -0.0636846119553 -0.0395434292464                       
129.0 130.0 131.0                                                       
Cl 131                                                                  
4.32674871092 4.32674871092 1.44224957031                               
-0.183036971498 -0.00360685768073 0.100253433664                        
130.0 131.0 132.0                                                       
Cl 132                                                                  
4.32674871092 4.32674871092 -4.32674871092                              
-0.0719940343809 -0.00736878254653 0.0470168105437                      
131.0 132.0 133.0                                                       
Cl 133                                                                  
4.32674871092 1.44224957031 4.32674871092                               
0.0751983624388 -0.0600418900646 -0.0061065228446                       
132.0 133.0 134.0                                                       
Cl 134                                                                  
4.32674871092 1.44224957031 -1.44224957031                              
0.090102026799 0.0965232848104 0.0476050123764                          
133.0 134.0 135.0                                                       
Cl 135                                                                  
4.32674871092 1.44224957031 -7.21124785154                              
0.0263028571934 0.0778453225759 0.165043451566                          
134.0 135.0 136.0                                                       
Cl 136                                                                  
4.32674871092 -1.44224957031 7.21124785154                              
-0.00306453197109 -0.130527392468 -0.0205677253114                      
135.0 136.0 137.0                                                       
Cl 137                                                                  
4.32674871092 -1.44224957031 1.44224957031                              
0.00323881961167 0.0470550861934 0.0765562023708                        
136.0 137.0 138.0                                                       
Cl 138                                                                  
4.32674871092 -1.44224957031 -4.32674871092                             
-0.0794760141346 0.077840483267 0.0248196267499                         
137.0 138.0 139.0                                                       
Cl 139                                                                  
4.32674871092 -4.32674871092 4.32674871092                              
-0.0522308505656 -0.015579227858 0.07598281038                          
138.0 139.0 140.0                                                       
Cl 140                                                                  
4.32674871092 -4.32674871092 -1.44224957031                             
-0.0749120725697 -0.0853336163158 0.0121353581141                       
139.0 140.0 141.0                                                       
Cl 141                                                                  
4.32674871092 -4.32674871092 -7.21124785154                             
0.070347326512 0.103916672136 0.0477029591325                           
140.0 141.0 142.0                                                       
Cl 142                                                                  
4.32674871092 -7.21124785154 7.21124785154                              
-0.0068797684687 -0.0988326640789 0.0944338860371                       
141.0 142.0 143.0                                                       
Cl 143                                                                  
4.32674871092 -7.21124785154 1.44224957031                              
-0.0227205620882 -0.122682083722 -0.00253708937583                      
142.0 143.0 144.0                                                       
Cl 144                                                                  
4.32674871092 -7.21124785154 -4.32674871092                             
0.0493874066915 -0.176494145518 -0.0357787196326                        
143.0 144.0 145.0                                                       
Cl 145                                                                  
1.44224957031 7.21124785154 7.21124785154                               
-0.194875273912 0.131330569183 0.0923588042328                          
144.0 145.0 146.0                                                       
Cl 146                                                                  
1.44224957031 7.21124785154 1.44224957031                               
0.0219683802794 0.0153232953955 0.0354096010024                         
145.0 146.0 147.0                                                       
Cl 147                                                                  
1.44224957031 7.21124785154 -4.32674871092                              
-0.110126106893 0.0457383114655 0.0333733278765                         
146.0 147.0 148.0                                                       
Cl 148                                                                  
1.44224957031 4.32674871092 4.32674871092                               
0.0183341277418 0.170128138073 -0.16073240527                           
147.0 148.0 149.0                                                       
Cl 149                                                                  
1.44224957031 4.32674871092 -1.44224957031                              
-0.252005439243 -0.049909788191 -0.0344215464053                        
148.0 149.0 150.0                                                       
Cl 150                                                                  
1.44224957031 4.32674871092 -7.21124785154                              
0.273712718877 -0.036928444598 -0.126077598577                          
149.0 150.0 151.0                                                       
Cl 151                                                                  
1.44224957031 1.44224957031 7.21124785154                               
0.0840342402401 0.0101143470286 0.107109108533                          
150.0 151.0 152.0                                                       
Cl 152                                                                  
1.44224957031 1.44224957031 1.44224957031                               
-0.0720850867398 -0.152834532475 0.038760566781                         
151.0 152.0 153.0                                                       
Cl 153                                                                  
1.44224957031 1.44224957031 -4.32674871092                              
-0.0163756444277 0.0491518945036 -0.0230897050935                       
152.0 153.0 154.0                                                       
Cl 154                                                                  
1.44224957031 -1.44224957031 4.32674871092                              
-0.138526658634 -0.118515363482 -0.00181186705974                       
153.0 154.0 155.0                                                       
Cl 155                                                                  
1.44224957031 -1.44224957031 -1.44224957031                             
0.0594755513761 0.171324252759 0.112379614351                           
154.0 155.0 156.0                                                       
Cl 156                                                                  
1.44224957031 -1.44224957031 -7.21124785154                             
-0.0447532758472 -0.015572476037 -0.0258330247381                       
155.0 156.0 157.0                                                       
Cl 157                                                                  
1.44224957031 -4.32674871092 7.21124785154                              
0.0649629210404 -0.119452200898 -0.0478787593582                        
156.0 157.0 158.0                                                       
Cl 158                                                                  
1.44224957031 -4.32674871092 1.44224957031                              
-0.013058462426 0.0162961988111 -0.104918574963                         
157.0 158.0 159.0                                                       
Cl 159                                                                  
1.44224957031 -4.32674871092 -4.32674871092                             
0.0851784615931 0.0277575887946 -0.0126273094702                        
158.0 159.0 160.0                                                       
Cl 160                                                                  
1.44224957031 -7.21124785154 4.32674871092                              
-0.0527713903015 -0.0872236138974 0.0882154207391                       
159.0 160.0 161.0                                                       
Cl 161                                                                  
1.44224957031 -7.21124785154 -1.44224957031                             
-0.0778353888895 -0.0312208427948 -0.0485576373152                      
160.0 161.0 162.0                                                       
Cl 162                                                                  
1.44224957031 -7.21124785154 -7.21124785154                             
-0.0779203539826 0.116557118421 0.145307957916                          
161.0 162.0 163.0                                                       
Cl 163                                                                  
-1.44224957031 7.21124785154 4.32674871092                              
0.11647972022 -0.0809694118109 0.105342144386                           
162.0 163.0 164.0                                                       
Cl 164                                                                  
-1.44224957031 7.21124785154 -1.44224957031                             
0.04706266981 -0.0355383573581 0.121335971391                           
163.0 164.0 165.0                                                       
Cl 165                                                                  
-1.44224957031 7.21124785154 -7.21124785154                             
0.00200042749868 0.0293981576752 0.173894083381                         
164.0 165.0 166.0                                                       
Cl 166                                                                  
-1.44224957031 4.32674871092 7.21124785154                              
-0.0155983518226 -0.0167408366293 -0.0962450474869                      
165.0 166.0 167.0                                                       
Cl 167                                                                  
-1.44224957031 4.32674871092 1.44224957031                              
0.0929202366775 -0.0264391881571 -0.050899486076                        
166.0 167.0 168.0                                                       
Cl 168                                                                  
-1.44224957031 4.32674871092 -4.32674871092                             
-0.14188771773 -0.226561974594 -0.00312978527411                        
167.0 168.0 169.0                                                       
Cl 169                                                                  
-1.44224957031 1.44224957031 4.32674871092                              
-0.0545672714813 0.108706135583 0.0172790160571                         
168.0 169.0 170.0                                                       
Cl 170                                                                  
-1.44224957031 1.44224957031 -1.44224957031                             
0.0608399608856 -0.0661267596295 0.0533773732013                        
169.0 170.0 171.0                                                       
Cl 171                                                                  
-1.44224957031 1.44224957031 -7.21124785154                             
0.0664085464193 0.0711417168705 0.124059023017                          
170.0 171.0 172.0                                                       
Cl 172                                                                  
-1.44224957031 -1.44224957031 7.21124785154                             
-0.133228062474 -0.0338037065035 -0.0843277512591                       
171.0 172.0 173.0                                                       
Cl 173                                                                  
-1.44224957031 -1.44224957031 1.44224957031                             
0.0960922180415 -0.0182016309185 0.0100253019521                        
172.0 173.0 174.0                                                       
Cl 174                                                                  
-1.44224957031 -1.44224957031 -4.32674871092                            
0.0841901190378 -0.0768074495613 0.130825671204                         
173.0 174.0 175.0                                                       
Cl 175                                                                  
-1.44224957031 -4.32674871092 4.32674871092                             
-0.0311950484582 0.0353877894301 -0.0348457409091                       
174.0 175.0 176.0                                                       
Cl 176                                                                  
-1.44224957031 -4.32674871092 -1.44224957031                            
-0.250874573432 0.0144635660617 -0.138083037868                         
175.0 176.0 177.0                                                       
Cl 177                                                                  
-1.44224957031 -4.32674871092 -7.21124785154                            
0.137873880813 -0.0590499538275 0.063740103282                          
176.0 177.0 178.0                                                       
Cl 178                                                                  
-1.44224957031 -7.21124785154 7.21124785154                             
0.0117015011624 0.0157005093423 0.135911738771                          
177.0 178.0 179.0                                                       
Cl 179                                                                  
-1.44224957031 -7.21124785154 1.44224957031                             
-0.0382938507354 0.0207484967024 0.200871957429                         
178.0 179.0 180.0                                                       
Cl 180                                                                  
-1.44224957031 -7.21124785154 -4.32674871092                            
0.0947616045487 0.198108482238 -0.126470180792                          
179.0 180.0 181.0                                                       
Cl 181                                                                  
-4.32674871092 7.21124785154 7.21124785154                              
-0.0520633523746 0.104556128009 0.0830740047355                         
180.0 181.0 182.0                                                       
Cl 182                                                                  
-4.32674871092 7.21124785154 1.44224957031                              
-0.0446321601173 -0.000252787270414 -0.0197557330647                    
181.0 182.0 183.0                                                       
Cl 183                                                                  
-4.32674871092 7.21124785154 -4.32674871092                             
0.107190951975 -0.0500779315545 0.0126179172146                         
182.0 183.0 184.0                                                       
Cl 184                                                                  
-4.32674871092 4.32674871092 4.32674871092                              
-0.189639839626 0.00823936005423 -0.0931659875933                       
183.0 184.0 185.0                                                       
Cl 185                                                                  
-4.32674871092 4.32674871092 -1.44224957031                             
0.0593762521395 -0.0344181867841 0.0403724439035                        
184.0 185.0 186.0                                                       
Cl 186                                                                  
-4.32674871092 4.32674871092 -7.21124785154                             
0.0372469253604 -0.07560653226 0.232639757                              
185.0 186.0 187.0                                                       
Cl 187                                                                  
-4.32674871092 1.44224957031 7.21124785154                              
0.0655617389711 0.0513007565768 0.0429618843123                         
186.0 187.0 188.0                                                       
Cl 188                                                                  
-4.32674871092 1.44224957031 1.44224957031                              
0.100310011294 0.0546178601649 0.0628999245595                          
187.0 188.0 189.0                                                       
Cl 189                                                                  
-4.32674871092 1.44224957031 -4.32674871092                             
-0.00340426685682 -0.0526319273311 -0.185254193073                      
188.0 189.0 190.0                                                       
Cl 190                                                                  
-4.32674871092 -1.44224957031 4.32674871092                             
-0.0749864701504 0.102451973332 0.0669496136214                         
189.0 190.0 191.0                                                       
Cl 191                                                                  
-4.32674871092 -1.44224957031 -1.44224957031                            
-0.0526118555591 0.0195102792834 0.0929372101518                        
190.0 191.0 192.0                                                       
Cl 192                                                                  
-4.32674871092 -1.44224957031 -7.21124785154                            
0.151901856248 -0.0300054705789 0.123037086104                          
191.0 192.0 193.0                                                       
Cl 193                                                                  
-4.32674871092 -4.32674871092 7.21124785154                             
-0.0537209277556 -0.00387760001899 -0.063680487719                      
192.0 193.0 194.0                                                       
Cl 194                                                                  
-4.32674871092 -4.32674871092 1.44224957031                             
-0.129766901147 -0.129571375958 0.161050989025                          
193.0 194.0 195.0                                                       
Cl 195                                                                  
-4.32674871092 -4.32674871092 -4.32674871092                            
-0.0910939740331 -0.183487875076 -0.0588543432029                       
194.0 195.0 196.0                                                       
Cl 196                                                                  
-4.32674871092 -7.21124785154 4.32674871092                             
0.10515530963 -0.0168296662213 -0.0366412712516                         
195.0 196.0 197.0                                                       
Cl 197                                                                  
-4.32674871092 -7.21124785154 -1.44224957031                            
0.190506555877 -0.0818837192375 -0.00675996557686                       
196.0 197.0 198.0                                                       
Cl 198                                                                  
-4.32674871092 -7.21124785154 -7.21124785154                            
0.103491009172 0.0760868269217 -0.0589314776173                         
197.0 198.0 199.0                                                       
Cl 199                                                                  
-7.21124785154 7.21124785154 4.32674871092                              
0.0809661381823 -0.127610163529 -0.0875064809382                        
198.0 199.0 200.0                                                       
Cl 200                                                                  
-7.21124785154 7.21124785154 -1.44224957031                             
-0.00321828880722 -0.00488689631355 -0.0916273770912                    
199.0 200.0 201.0                                                       
Cl 201                                                                  
-7.21124785154 7.21124785154 -7.21124785154                             
0.084545230698 0.110632059847 -0.0984554374525                          
200.0 201.0 202.0                                                       
Cl 202                                                                  
-7.21124785154 4.32674871092 7.21124785154                              
-0.046194716578 0.0594552165036 0.0215224447528                         
201.0 202.0 203.0                                                       
Cl 203                                                                  
-7.21124785154 4.32674871092 1.44224957031                              
-0.0406903704314 -0.212747059483 0.177826385817                         
202.0 203.0 204.0                                                       
Cl 204                                                                  
-7.21124785154 4.32674871092 -4.32674871092                             
-0.00682714756499 0.000547505627843 0.0686698121124                     
203.0 204.0 205.0                                                       
Cl 205                                                                  
-7.21124785154 1.44224957031 4.32674871092                              
-0.0103827305854 0.267653313834 -0.165953778547                         
204.0 205.0 206.0                                                       
Cl 206                                                                  
-7.21124785154 1.44224957031 -1.44224957031                             
0.0962013552038 -0.022732031391 0.00111775538872                        
205.0 206.0 207.0                                                       
Cl 207                                                                  
-7.21124785154 1.44224957031 -7.21124785154                             
0.112833765131 0.0588486514581 0.133815632805                           
206.0 207.0 208.0                                                       
Cl 208                                                                  
-7.21124785154 -1.44224957031 7.21124785154                             
0.0336024686865 -0.10405619579 -0.0301352706893                         
207.0 208.0 209.0                                                       
Cl 209                                                                  
-7.21124785154 -1.44224957031 1.44224957031                             
-0.0557716854035 -0.0913608889468 0.0743098636822                       
208.0 209.0 210.0                                                       
Cl 210                                                                  
-7.21124785154 -1.44224957031 -4.32674871092                            
-0.00462316792596 0.0222675270262 0.0931201400802                       
209.0 210.0 211.0                                                       
Cl 211                                                                  
-7.21124785154 -4.32674871092 4.32674871092                             
0.015110091015 0.0271260070835 -0.104271226044                          
210.0 211.0 212.0                                                       
Cl 212                                                                  
-7.21124785154 -4.32674871092 -1.44224957031                            
0.169588172022 0.0140116707043 0.0587040639597                          
211.0 212.0 213.0                                                       
Cl 213                                                                  
-7.21124785154 -4.32674871092 -7.21124785154                            
-0.0543646819156 -0.0533692001496 -0.00760893063701                     
212.0 213.0 214.0                                                       
Cl 214                                                                  
-7.21124785154 -7.21124785154 7.21124785154                             
0.138386047386 0.117210120143 -0.0717898220157                          
213.0 214.0 215.0                                                       
Cl 215                                                                  
-7.21124785154 -7.21124785154 1.44224957031                             
-0.0115535156267 0.180079193958 -0.00492120460379                       
214.0 215.0 216.0                                                       
Cl 216                                                                  
-7.21124785154 -7.21124785154 -4.32674871092                            
0.0589285161603 0.0941001756035 -0.119873029295                         
215.0 216.0 217.0                                                       
