 ******************************************************************
 *************  stfc/ccp5  program  library  package  ** D ********
 *************  daresbury laboratory general purpose  *** L *******
 **         **  classical molecular dynamics program  **** \ ******
 ** DL_POLY **  authors:   i.t.todorov   &   w.smith  ***** P *****
 **         **  version:  4.07    /    january  2015  ****** O ****
 *************  execution on            1    node(s)  ******* L ***
 *************  contributors' list:                   ******** Y **
 *************  ------------------------------------  *************
 *************  i.j.bush, r.davidchak,                *************
 *************  m.a.seaton, a.v.brukhno               *************
 ******************************************************************

 ******************************************************************
 ****  ~~~~~~~~~~~~~~~~~~~~~~~~~~~~~~~~~~~~~~~~~~~~~~~~~~~~~~  ****
 ****  Please do cite `J. Mater. Chem.', 16, 1911-1918 (2006)  ****
 ****  ^^^^^^^^^^^^^^^^^^^^^^^^^^^^^^^^^^^^^^^^^^^^^^^^^^^^^^  ****
 ****  when publishing research data obtained using DL_POLY_4  ****
 ****  ^^^^^^^^^^^^^^^^^^^^^^^^^^^^^^^^^^^^^^^^^^^^^^^^^^^^^^^ ****
 ******************************************************************


 I/O read method: parallel by using MPI-I/O (assumed)
 I/O readers (assumed)                   1
 I/O read batch size (assumed)     2000000
 I/O read buffer size (assumed)      20000
 I/O parallel read error checking off (assumed)

 I/O write method: parallel by using MPI-I/O (assumed)
 I/O write type: data sorting on (assumed)
 I/O writers (assumed)                   1
 I/O write batch size (assumed)    2000000
 I/O write buffer size (assumed)     20000
 I/O parallel write error checking off (assumed)


 node/domain decomposition (x,y,z):      1     1     1

 cutoff driven limit on largest possible decomposition:    64 nodes/domains (4,4,4)

 cutoff driven limit on largest balanced decomposition:     8 nodes/domains (2,2,2)

 link-cell decomposition 1 (x,y,z):      4     4     4

 *** pre-scanning stage (set_bounds) DONE ***

 time elapsed since job start:        0.069 sec

 **********************************************************************************************************************************
 **********************************************************************************************************************************
 **********************************************************************************************************************************
 ************************     Argon System                                                                 ************************
 **********************************************************************************************************************************
 **********************************************************************************************************************************
 **********************************************************************************************************************************


 SIMULATION CONTROL PARAMETERS

 simulation temperature (K)          8.5000E+01

 simulation pressure (katms)         0.0000E+00

 selected number of timesteps        10000

 equilibration period (steps)            0

 warning issued     36

 *** warning - DL_POLY_2/Classic directive 'mult(iple timestep)' defaulted to ***
 *** DL_POLY_4 directive 'infrequent k-space SPME evaluation' !!! ***


 temperature scaling on (during equilibration)
 temperature scaling interval        10001

 data printing interval (steps)      10000

 data stacking interval (steps)        100

 statistics file interval            10000

 trajectory file option on
 trajectory file start               10000
 trajectory file interval                5
 trajectory file info key                0

 real space cutoff (Angs)            7.5000E+00

 warning issued     35

 *** warning - DL_POLY_2/Classic directive 'delr - Verlet shell strip cutoff' defaulted to ***
 *** DL_POLY_4 directive 'rpad - real space cutoff padding option' ; rpad=Max(rpad,delr/4) !!! ***

 cutoff padding (Angs)               2.5000E-01

 vdw cutoff (Angs)                   7.5000E+00

 vdw force-shifting option on

 unscaled restart requested (starting a new simulation)

 warning issued    130

 *** warning - no ensemble is specified !!! ***


 Integration : Velocity Verlet
 Ensemble : NVE (Microcanonical)

 Electrostatics switched off!!!

 fixed simulation timestep (ps)      1.0000E-03

 rdf collection requested
 rdf collection interval             10000
 rdf binsize (Angstroms)             5.0000E-02
 no rdf printing requested
 rdf pairs specified in FIELD

 data dumping interval (steps)        1000

 allocated job run time   (s)        3.6000E+03

 allocated job close time (s)        1.0000E+02


 SYSTEM SPECIFICATION

 energy units = dl_poly internal units (10 J/mol)


 number of molecular types               1


 molecular species type                  1

 name of species:             Argon Atoms                             

 number of molecules                  1728

 number of atoms/sites                   1

 atomic characteristics:

               site    name             mass         charge      repeat      freeze

                  1    Ar            39.948000       0.000000         1         0


 total number of molecules            1728

 total number of sites                   1


 number of specified vdw potentials                1

       pair     atom 1  atom 2     key                              parameters

          1     Ar      Ar         lj               1.000000            1.000000            0.000000            0.000000            0.000000

 configuration file name: 

          Argon                                                                   


 selected image convention               1


 simulation cell vectors

       32.5730113991        0.0000000000        0.0000000000
        0.0000000000       32.5730113991        0.0000000000
        0.0000000000        0.0000000000       32.5730113991


 system volume            34559.9999999    

 *** all reading and connectivity checks DONE ***

 time elapsed since job start:        0.073 sec

 *** initialisation and haloing DONE ***

 time elapsed since job start:        0.074 sec

 //==============================================================\\
 ||                                                              ||
 ||           SUMMARY  OF  TOPOLOGICAL  DECOMPOSITION            ||
 ||                                                              ||
 ||--------------------------------------------------------------||
 ||  INTERACTION  OR  TYPE  |  GRAND TOTAL | Fully/Partly FROZEN ||
 ||-------------------------+--------------+---------------------||
 ||  all particles/sites    |        1728  |  F            0     ||
 ||  free particles         |        1728  |  F            0     ||
 ||  core-shell units       |           0  |  P            0     ||
 ||  constraint bond units  |           0  |  F            0     ||
 ||  PMF units              |           0  |  P         NONE     ||
 ||  rigid body units       |           0  |  F            0     ||
 ||  tethered atom units    |           0  |  F            0     ||
 ||  chemical bond units    |           0  |  F            0     ||
 ||  bond angle units       |           0  |  F            0     ||
 ||  dihedral angle units   |           0  |  F            0     ||
 ||  inversion angle units  |           0  |  F            0     ||
 \\==============================================================//


 *** bookkeeping DONE ***

 time elapsed since job start:        0.074 sec


 degrees of freedom break-down list
 ----------------------------------
 free particles                5184
 centre of mass                  -3
 non-periodicity                  0
 frozen free particles            0
 shell-pseudo                     0
 constrained                      0
 RB translational                 0
 RB rotational                    0
 ----------------------------------
 total (real)                  5181

 *** temperature setting DONE ***

 time elapsed since job start:        0.074 sec


 sample of starting configuration on node zero

        i       x(i)        y(i)        z(i)       vx(i)       vy(i)       vz(i)


        1 -1.4929E+01 -1.4929E+01 -1.4929E+01 -2.9418E-01  5.7341E-02 -7.5150E-01
       88 -6.7860E+00  4.0716E+00 -1.4929E+01 -9.1447E-01 -1.0733E+00 -1.4545E-01
      175  1.3572E+00 -9.5005E+00 -1.2215E+01  1.2673E-02 -1.9495E-01  8.5110E-01
      262  9.5005E+00  9.5005E+00 -1.2215E+01  2.6071E-01  8.9369E-01 -6.6139E-01
      349 -1.4929E+01 -1.3572E+00 -9.5005E+00  4.1433E-01 -1.6918E-01  1.2111E+00
      436 -6.7860E+00 -1.4929E+01 -6.7860E+00  5.1685E-01 -5.0763E-01 -3.8631E-04
      523  1.3572E+00  4.0716E+00 -6.7860E+00 -9.4675E-01 -9.4813E-02  1.5553E+00
      610  9.5005E+00 -9.5005E+00 -4.0716E+00  1.0089E+00  5.9396E-01 -1.1905E+00
      697 -1.4929E+01  1.2215E+01 -4.0716E+00  1.5894E+00 -6.7356E-01  2.0716E-02
      784 -6.7860E+00 -1.3572E+00 -1.3572E+00  1.4271E-01 -9.0942E-02 -2.4448E-01
      871  1.3572E+00 -1.4929E+01  1.3572E+00  2.0591E+00 -4.2732E-01 -9.1638E-01
      958  9.5005E+00  4.0716E+00  1.3572E+00  2.5321E+00  1.7587E+00  6.8833E-01
     1045 -1.4929E+01 -6.7860E+00  4.0716E+00 -1.4074E+00 -1.1905E+00  1.0999E+00
     1132 -6.7860E+00  1.2215E+01  4.0716E+00 -2.1135E-01  4.2727E-02  1.3720E+00
     1219  1.3572E+00 -1.3572E+00  6.7860E+00  1.1234E+00 -9.2772E-01 -6.6779E-03
     1306  9.5005E+00 -1.4929E+01  9.5005E+00  5.9392E-01 -1.6188E-01  1.5356E-01
     1393 -1.4929E+01  6.7860E+00  9.5005E+00 -1.8224E+00 -4.8749E-02  3.0227E-01
     1480 -6.7860E+00 -6.7860E+00  1.2215E+01  6.4932E-01  1.4102E-01 -6.7793E-01
     1567  1.3572E+00  1.2215E+01  1.2215E+01  1.3394E-01  1.7944E+00 -5.3312E-01
     1654  9.5005E+00 -1.3572E+00  1.4929E+01 -5.3326E-01  9.5675E-01  9.3747E-01



 time elapsed since job start:        0.074 sec

 forces evaluated at (re)start for VV integration...

 ----------------------------------------------------------------------------------------------------------------------------------

          step     eng_tot    temp_tot     eng_cfg     eng_src     eng_cou     eng_bnd     eng_ang     eng_dih     eng_tet
      time(ps)      eng_pv    temp_rot     vir_cfg     vir_src     vir_cou     vir_bnd     vir_ang     vir_con     vir_tet
      cpu  (s)      volume    temp_shl     eng_shl     vir_shl       alpha        beta       gamma     vir_pmf       press

 ----------------------------------------------------------------------------------------------------------------------------------
             0  1.0479E+05  4.8682E+01 -6.6582E+01 -6.6582E+01  0.0000E+00  0.0000E+00  0.0000E+00  0.0000E+00  0.0000E+00
       0.00000  1.7455E+05  0.0000E+00  4.1633E+02  4.1633E+02  0.0000E+00  0.0000E+00  0.0000E+00  0.0000E+00  0.0000E+00
         0.086  3.4560E+04  0.0000E+00  0.0000E+00  0.0000E+00  9.0000E+01  9.0000E+01  9.0000E+01  0.0000E+00  3.3082E-01

       rolling  0.0000E+00  0.0000E+00  0.0000E+00  0.0000E+00  0.0000E+00  0.0000E+00  0.0000E+00  0.0000E+00  0.0000E+00
      averages  0.0000E+00  0.0000E+00  0.0000E+00  0.0000E+00  0.0000E+00  0.0000E+00  0.0000E+00  0.0000E+00  0.0000E+00
                0.0000E+00  0.0000E+00  0.0000E+00  0.0000E+00  0.0000E+00  0.0000E+00  0.0000E+00  0.0000E+00  0.0000E+00
 ----------------------------------------------------------------------------------------------------------------------------------
 ----------------------------------------------------------------------------------------------------------------------------------

          step     eng_tot    temp_tot     eng_cfg     eng_src     eng_cou     eng_bnd     eng_ang     eng_dih     eng_tet
      time(ps)      eng_pv    temp_rot     vir_cfg     vir_src     vir_cou     vir_bnd     vir_ang     vir_con     vir_tet
      cpu  (s)      volume    temp_shl     eng_shl     vir_shl       alpha        beta       gamma     vir_pmf       press

 ----------------------------------------------------------------------------------------------------------------------------------
             1  1.0479E+05  4.8682E+01 -6.6582E+01 -6.6582E+01  0.0000E+00  0.0000E+00  0.0000E+00  0.0000E+00  0.0000E+00
       0.00100  1.7455E+05  0.0000E+00  4.1633E+02  4.1633E+02  0.0000E+00  0.0000E+00  0.0000E+00  0.0000E+00  0.0000E+00
         0.090  3.4560E+04  0.0000E+00  0.0000E+00  0.0000E+00  9.0000E+01  9.0000E+01  9.0000E+01  0.0000E+00  3.3082E-01

       rolling  1.0479E+05  4.8682E+01 -6.6582E+01 -6.6582E+01  0.0000E+00  0.0000E+00  0.0000E+00  0.0000E+00  0.0000E+00
      averages  1.7455E+05  0.0000E+00  4.1633E+02  4.1633E+02  0.0000E+00  0.0000E+00  0.0000E+00  0.0000E+00  0.0000E+00
                3.4560E+04  0.0000E+00  0.0000E+00  0.0000E+00  9.0000E+01  9.0000E+01  9.0000E+01  0.0000E+00  3.3082E-01
 ----------------------------------------------------------------------------------------------------------------------------------
         10000  1.0479E+05  4.8422E+01  4.9216E+02  4.9216E+02  0.0000E+00  0.0000E+00  0.0000E+00  0.0000E+00  0.0000E+00
      10.00000  1.7886E+05  0.0000E+00 -1.3623E+04 -1.3623E+04  0.0000E+00  0.0000E+00  0.0000E+00  0.0000E+00  0.0000E+00
        48.014  3.4560E+04  0.0000E+00  0.0000E+00  0.0000E+00  9.0000E+01  9.0000E+01  9.0000E+01  0.0000E+00  3.5125E-01

       rolling  1.0479E+05  4.8579E+01  1.5550E+02  1.5550E+02  0.0000E+00  0.0000E+00  0.0000E+00  0.0000E+00  0.0000E+00
      averages  1.7756E+05  0.0000E+00 -9.0459E+03 -9.0459E+03  0.0000E+00  0.0000E+00  0.0000E+00  0.0000E+00  0.0000E+00
                3.4560E+04  0.0000E+00  0.0000E+00  0.0000E+00  9.0000E+01  9.0000E+01  9.0000E+01  0.0000E+00  3.4508E-01
 ----------------------------------------------------------------------------------------------------------------------------------


 run terminating...  elapsed cpu time:       48.090 sec, job time:     3600.000 sec, close time:      100.000 sec



 sample of final configuration on node zero

        i       x(i)        y(i)        z(i)       vx(i)       vy(i)       vz(i)       fx(i)       fy(i)       fz(i)


        1  1.1639E+01 -1.5762E+01  8.2031E+00  1.5576E-01  3.0956E-02 -1.0571E+00 -1.5557E+00  6.4776E-01 -4.4931E-01
       88  1.3153E+01  7.0178E+00 -1.1045E+01 -1.5614E+00  1.2135E+00  7.5071E-01 -2.1536E-01 -4.0041E-01  3.4253E-01
      175 -4.8793E+00 -1.5885E+01 -1.3586E+01 -1.4797E+00  5.0381E-01 -1.8787E+00  1.1053E-03 -3.4915E-02  3.7030E-02
      262  8.2545E+00  9.4415E+00  1.3123E+01  4.1272E-01  3.0457E-01 -2.1582E+00 -5.2824E-01 -2.9624E-01 -1.2274E+00
      349  1.1186E+01 -8.0483E+00 -1.3405E+01 -9.5930E-01 -8.5264E-01 -8.2681E-01  1.3784E-01 -3.4225E-02  3.4106E-02
      436 -3.4611E+00  1.1967E+01 -5.2365E+00  1.8768E-02 -8.1112E-01  3.3044E-01  3.4999E-01  4.8649E-02  1.9704E-01
      523 -7.3131E+00 -4.2791E+00 -3.9655E+00 -9.7447E-01 -1.1429E+00  1.0880E-01  2.2296E-01 -1.5161E+00  3.8874E-01
      610 -1.2172E+01 -2.0199E+00  1.3663E+01  1.0289E+00  6.4405E-01 -1.6875E+00 -1.7464E+00  2.1943E+00  1.5657E+00
      697 -7.5094E+00  8.8693E+00 -4.2257E+00 -1.2412E-02  2.4815E-01 -1.6058E-01  2.3650E-02 -6.5705E-02  9.8495E-02
      784 -2.4979E+00 -7.2976E+00 -7.5354E+00  6.4395E-01 -9.6822E-01 -9.1099E-01  1.1678E-01  2.1063E-01 -2.5746E-01
      871 -9.2865E-03  1.3370E+01  1.2847E+01 -1.6537E+00  1.3538E-01 -2.3681E+00  3.1743E-01 -6.1935E-01  5.9886E-01
      958 -1.6218E+01 -1.5716E+01 -3.1042E+00  9.3660E-02  9.1786E-01 -1.0390E+00 -9.4425E-02 -5.2888E-02  2.8602E-01
     1045  4.2424E+00  1.5236E+01  1.2592E+01 -1.8425E+00 -3.1833E-01  1.2572E+00 -1.5718E+00 -3.5067E-01  1.0716E+00
     1132 -9.8587E+00 -1.0656E+01 -1.6673E+00  1.0537E+00 -3.5858E-01 -7.1996E-01 -1.1986E+00  2.0681E-01  2.3616E-01
     1219  7.2885E+00  3.2253E+00  1.3766E+01 -1.0904E+00  1.8461E+00  7.3571E-01 -5.2449E-01  1.8746E-01  7.8392E-01
     1306 -1.4805E+01 -1.3122E+01  8.0953E+00  6.9299E-01  8.0612E-02  6.1622E-01  4.0903E-01 -4.3510E-01 -2.4375E+00
     1393 -4.4738E-01  6.0368E+00  1.2567E+01 -1.7876E+00 -1.2011E-01  4.1583E-01  7.0919E-02  2.2004E-02 -7.9498E-02
     1480  1.0662E+00 -4.0367E+00  8.3995E+00  9.5542E-01  5.6988E-01  4.1719E-01  1.0710E+00 -2.0592E+00  1.2320E+00
     1567  3.2927E+00 -1.2011E+01  7.1022E+00  7.7939E-02  4.1257E-01 -9.5695E-01 -4.6793E-01 -1.7088E-02  3.5262E-01
     1654  3.6560E+00  7.9673E+00 -7.4782E+00 -6.2797E-01  9.4499E-01  1.0846E+00 -4.9177E-02 -2.7943E-02  6.9315E-02


 VNL skipping run statistics - skips per timestep: average 28.68 minimum  19 maximum  30


 run terminated after    10000 steps (    10.000 ps), final averages calculated over    10000 steps (    10.000 ps).


 ----------------------------------------------------------------------------------------------------------------------------------

          step     eng_tot    temp_tot     eng_cfg     eng_src     eng_cou     eng_bnd     eng_ang     eng_dih     eng_tet
      time(ps)      eng_pv    temp_rot     vir_cfg     vir_src     vir_cou     vir_bnd     vir_ang     vir_con     vir_tet
      cpu  (s)      volume    temp_shl     eng_shl     vir_shl       alpha        beta       gamma     vir_pmf       press

 ----------------------------------------------------------------------------------------------------------------------------------
         10000  1.0479E+05  4.8508E+01  3.0768E+02  3.0768E+02  0.0000E+00  0.0000E+00  0.0000E+00  0.0000E+00  0.0000E+00
      10.00000  1.7811E+05  0.0000E+00 -1.0999E+04 -1.0999E+04  0.0000E+00  0.0000E+00  0.0000E+00  0.0000E+00  0.0000E+00
        48.209  3.4560E+04  0.0000E+00  0.0000E+00  0.0000E+00  9.0000E+01  9.0000E+01  9.0000E+01  0.0000E+00  3.4768E-01

       r.m.s.   1.7574E-02  9.7309E-02  2.0959E+02  2.0959E+02  0.0000E+00  0.0000E+00  0.0000E+00  0.0000E+00  0.0000E+00
      fluctn.   1.1069E+03  0.0000E+00  3.7000E+03  3.7000E+03  0.0000E+00  0.0000E+00  0.0000E+00  0.0000E+00  0.0000E+00
                0.0000E+00  0.0000E+00  0.0000E+00  0.0000E+00  0.0000E+00  0.0000E+00  0.0000E+00  0.0000E+00  5.2489E-03
 ----------------------------------------------------------------------------------------------------------------------------------


            Approximate 3D Diffusion Coefficients and square root of MSDs

            atom         DC (10^-9 m^2 s^-1)   Sqrt[MSD] (Ang)

            Ar                4.1733E+01          1.4109E+01


                Average pressure tensor  (katms)                              r.m.s. fluctuations

           3.5032E-01 -4.8516E-04 -3.3109E-03                          7.7342E-03  3.8625E-03  8.0443E-03
          -4.8516E-04  3.4313E-01  5.4747E-03                          3.8625E-03  9.3102E-03  8.1013E-03
          -3.3109E-03  5.4747E-03  3.4960E-01                          8.0443E-03  8.1013E-03  1.1883E-02

            trace/3    3.4768E-01



 time elapsed since job start:       48.209 sec



 *************************************************************************************************************************
 **************                                                                                             **************
 **************  Thank you for using the DL_POLY_4 package in your work.  Please, acknowledge our efforts   **************
 **************                                                                                             **************
 **************  by including the following reference when publishing data obtained using DL_POLY_4:        **************
 **************                                                                                             **************
 **************  I.T. Todorov, W. Smith, K. Trachenko & M.T. Dove, `J. Mater. Chem.', 16, 1911-1918 (2006)  **************
 **************                                                                                             **************
 *************************************************************************************************************************

