 ******************************************************************
 *************  stfc/ccp5  program  library  package  ** D ********
 *************  daresbury laboratory general purpose  *** L *******
 **         **  classical molecular dynamics program  **** \ ******
 ** DL_POLY **  authors:   i.t.todorov   &   w.smith  ***** P *****
 **         **  version:  4.07    /    january  2015  ****** O ****
 *************  execution on            1    node(s)  ******* L ***
 *************  contributors' list:                   ******** Y **
 *************  ------------------------------------  *************
 *************  i.j.bush, r.davidchak,                *************
 *************  m.a.seaton, a.v.brukhno               *************
 ******************************************************************

 ******************************************************************
 ****  ~~~~~~~~~~~~~~~~~~~~~~~~~~~~~~~~~~~~~~~~~~~~~~~~~~~~~~  ****
 ****  Please do cite `J. Mater. Chem.', 16, 1911-1918 (2006)  ****
 ****  ^^^^^^^^^^^^^^^^^^^^^^^^^^^^^^^^^^^^^^^^^^^^^^^^^^^^^^  ****
 ****  when publishing research data obtained using DL_POLY_4  ****
 ****  ^^^^^^^^^^^^^^^^^^^^^^^^^^^^^^^^^^^^^^^^^^^^^^^^^^^^^^^ ****
 ******************************************************************


 I/O read method: parallel by using MPI-I/O (assumed)
 I/O readers (assumed)                   1
 I/O read batch size (assumed)     2000000
 I/O read buffer size (assumed)      20000
 I/O parallel read error checking off (assumed)

 I/O write method: parallel by using MPI-I/O (assumed)
 I/O write type: data sorting on (assumed)
 I/O writers (assumed)                   1
 I/O write batch size (assumed)    2000000
 I/O write buffer size (assumed)     20000
 I/O parallel write error checking off (assumed)


 node/domain decomposition (x,y,z):      1     1     1

 cutoff driven limit on largest possible decomposition:    27 nodes/domains (3,3,3)

 cutoff driven limit on largest balanced decomposition:     1 nodes/domains (1,1,1)

 link-cell decomposition 1 (x,y,z):      3     3     3

 *** pre-scanning stage (set_bounds) DONE ***

 time elapsed since job start:        0.294 sec

 **********************************************************************************************************************************
 **********************************************************************************************************************************
 **********************************************************************************************************************************
 ************************     Argon System                                                                 ************************
 **********************************************************************************************************************************
 **********************************************************************************************************************************
 **********************************************************************************************************************************


 SIMULATION CONTROL PARAMETERS

 simulation temperature (K)          8.5000E+01

 simulation pressure (katms)         0.0000E+00

 selected number of timesteps        20000

 equilibration period (steps)            0

 warning issued     36

 *** warning - DL_POLY_2/Classic directive 'mult(iple timestep)' defaulted to ***
 *** DL_POLY_4 directive 'infrequent k-space SPME evaluation' !!! ***


 temperature scaling on (during equilibration)
 temperature scaling interval        20001

 data printing interval (steps)      20000

 data stacking interval (steps)        100

 statistics file interval            20000

 trajectory file option on
 trajectory file start               20000
 trajectory file interval                5
 trajectory file info key                0

 real space cutoff (Angs)            7.5000E+00

 warning issued     35

 *** warning - DL_POLY_2/Classic directive 'delr - Verlet shell strip cutoff' defaulted to ***
 *** DL_POLY_4 directive 'rpad - real space cutoff padding option' ; rpad=Max(rpad,delr/4) !!! ***

 cutoff padding (Angs)               2.5000E-01

 vdw cutoff (Angs)                   7.5000E+00

 vdw force-shifting option on

 unscaled restart requested (starting a new simulation)

 warning issued    130

 *** warning - no ensemble is specified !!! ***


 Integration : Velocity Verlet
 Ensemble : NVE (Microcanonical)

 Electrostatics switched off!!!

 fixed simulation timestep (ps)      1.0000E-04

 rdf collection requested
 rdf collection interval             20000
 rdf binsize (Angstroms)             5.0000E-02
 no rdf printing requested
 rdf pairs specified in FIELD

 data dumping interval (steps)        1000

 allocated job run time   (s)        3.6000E+03

 allocated job close time (s)        1.0000E+02


 SYSTEM SPECIFICATION

 energy units = dl_poly internal units (10 J/mol)


 number of molecular types               1


 molecular species type                  1

 name of species:             Argon Atoms                             

 number of molecules                  8000

 number of atoms/sites                   1

 atomic characteristics:

               site    name             mass         charge      repeat      freeze

                  1    Ar            39.948000       0.000000         1         0


 total number of molecules            8000

 total number of sites                   1


 number of specified vdw potentials                1

       pair     atom 1  atom 2     key                              parameters

          1     Ar      Ar         lj               1.000000            1.000000            0.000000            0.000000            0.000000

 configuration file name: 

          Argon                                                                   


 selected image convention               1


 simulation cell vectors

       25.1984209979        0.0000000000        0.0000000000
        0.0000000000       25.1984209979        0.0000000000
        0.0000000000        0.0000000000       25.1984209979


 system volume            16000.0000000    

 *** all reading and connectivity checks DONE ***

 time elapsed since job start:        0.322 sec

 *** initialisation and haloing DONE ***

 time elapsed since job start:        0.327 sec

 //==============================================================\\
 ||                                                              ||
 ||           SUMMARY  OF  TOPOLOGICAL  DECOMPOSITION            ||
 ||                                                              ||
 ||--------------------------------------------------------------||
 ||  INTERACTION  OR  TYPE  |  GRAND TOTAL | Fully/Partly FROZEN ||
 ||-------------------------+--------------+---------------------||
 ||  all particles/sites    |        8000  |  F            0     ||
 ||  free particles         |        8000  |  F            0     ||
 ||  core-shell units       |           0  |  P            0     ||
 ||  constraint bond units  |           0  |  F            0     ||
 ||  PMF units              |           0  |  P         NONE     ||
 ||  rigid body units       |           0  |  F            0     ||
 ||  tethered atom units    |           0  |  F            0     ||
 ||  chemical bond units    |           0  |  F            0     ||
 ||  bond angle units       |           0  |  F            0     ||
 ||  dihedral angle units   |           0  |  F            0     ||
 ||  inversion angle units  |           0  |  F            0     ||
 \\==============================================================//


 *** bookkeeping DONE ***

 time elapsed since job start:        0.327 sec


 degrees of freedom break-down list
 ----------------------------------
 free particles               24000
 centre of mass                  -3
 non-periodicity                  0
 frozen free particles            0
 shell-pseudo                     0
 constrained                      0
 RB translational                 0
 RB rotational                    0
 ----------------------------------
 total (real)                 23997

