 ******************************************************************
 *************  stfc/ccp5  program  library  package  ** D ********
 *************  daresbury laboratory general purpose  *** L *******
 **         **  classical molecular dynamics program  **** \ ******
 ** DL_POLY **  authors:   i.t.todorov   &   w.smith  ***** P *****
 **         **  version:  4.07    /    january  2015  ****** O ****
 *************  execution on            1    node(s)  ******* L ***
 *************  contributors' list:                   ******** Y **
 *************  ------------------------------------  *************
 *************  i.j.bush, r.davidchak,                *************
 *************  m.a.seaton, a.v.brukhno               *************
 ******************************************************************

 ******************************************************************
 ****  ~~~~~~~~~~~~~~~~~~~~~~~~~~~~~~~~~~~~~~~~~~~~~~~~~~~~~~  ****
 ****  Please do cite `J. Mater. Chem.', 16, 1911-1918 (2006)  ****
 ****  ^^^^^^^^^^^^^^^^^^^^^^^^^^^^^^^^^^^^^^^^^^^^^^^^^^^^^^  ****
 ****  when publishing research data obtained using DL_POLY_4  ****
 ****  ^^^^^^^^^^^^^^^^^^^^^^^^^^^^^^^^^^^^^^^^^^^^^^^^^^^^^^^ ****
 ******************************************************************


 I/O read method: parallel by using MPI-I/O (assumed)
 I/O readers (assumed)                   1
 I/O read batch size (assumed)     2000000
 I/O read buffer size (assumed)      20000
 I/O parallel read error checking off (assumed)

 I/O write method: parallel by using MPI-I/O (assumed)
 I/O write type: data sorting on (assumed)
 I/O writers (assumed)                   1
 I/O write batch size (assumed)    2000000
 I/O write buffer size (assumed)     20000
 I/O parallel write error checking off (assumed)


 node/domain decomposition (x,y,z):      1     1     1

 cutoff driven limit on largest possible decomposition:    27 nodes/domains (3,3,3)

 cutoff driven limit on largest balanced decomposition:     1 nodes/domains (1,1,1)

 link-cell decomposition 1 (x,y,z):      3     3     3

 *** pre-scanning stage (set_bounds) DONE ***

 time elapsed since job start:        0.047 sec

 **********************************************************************************************************************************
 **********************************************************************************************************************************
 **********************************************************************************************************************************
 ************************     Argon System                                                                 ************************
 **********************************************************************************************************************************
 **********************************************************************************************************************************
 **********************************************************************************************************************************


 SIMULATION CONTROL PARAMETERS

 simulation temperature (K)          8.5000E+01

 simulation pressure (katms)         0.0000E+00

 selected number of timesteps         5000

 equilibration period (steps)         1000

 warning issued     36

 *** warning - DL_POLY_2/Classic directive 'mult(iple timestep)' defaulted to ***
 *** DL_POLY_4 directive 'infrequent k-space SPME evaluation' !!! ***


 temperature scaling on (during equilibration)
 temperature scaling interval            5

 data printing interval (steps)        100

 data stacking interval (steps)        100

 statistics file interval             5000

 trajectory file option on
 trajectory file start                5000
 trajectory file interval                5
 trajectory file info key                0

 real space cutoff (Angs)            7.5000E+00

 warning issued     35

 *** warning - DL_POLY_2/Classic directive 'delr - Verlet shell strip cutoff' defaulted to ***
 *** DL_POLY_4 directive 'rpad - real space cutoff padding option' ; rpad=Max(rpad,delr/4) !!! ***

 cutoff padding (Angs)               2.5000E-01

 vdw cutoff (Angs)                   7.5000E+00

 unscaled restart requested (starting a new simulation)

 warning issued    130

 *** warning - no ensemble is specified !!! ***


 Integration : Velocity Verlet
 Ensemble : NVE (Microcanonical)

 Electrostatics switched off!!!

 fixed simulation timestep (ps)      1.0000E-03

 rdf collection requested
 rdf collection interval              5000
 rdf binsize (Angstroms)             5.0000E-02
 no rdf printing requested
 rdf pairs specified in FIELD

 data dumping interval (steps)        1000

 allocated job run time   (s)        3.6000E+03

 allocated job close time (s)        1.0000E+02


 SYSTEM SPECIFICATION

 energy units = kJ/mol


 number of molecular types               1


 molecular species type                  1

 name of species:             Argon Atoms                             

 number of molecules                  1000

 number of atoms/sites                   1

 atomic characteristics:

               site    name             mass         charge      repeat      freeze

                  1    Ar            39.948000       0.000000         1         0


 total number of molecules            1000

 total number of sites                   1


 number of specified vdw potentials                1

       pair     atom 1  atom 2     key                              parameters

          1     Ar      Ar         lj               0.966100            3.405000            0.000000            0.000000            0.000000

 configuration file name: 

          Argon                                                                   


 selected image convention               1


 simulation cell vectors

       27.1441761659        0.0000000000        0.0000000000
        0.0000000000       27.1441761659        0.0000000000
        0.0000000000        0.0000000000       27.1441761659


 system volume            19999.9999999    

 *** all reading and connectivity checks DONE ***

 time elapsed since job start:        0.050 sec


 long-range correction for: vdw energy    -0.149060E+04
                          : vdw pressure  -0.243568E+01

 *** initialisation and haloing DONE ***

 time elapsed since job start:        0.050 sec

 //==============================================================\\
 ||                                                              ||
 ||           SUMMARY  OF  TOPOLOGICAL  DECOMPOSITION            ||
 ||                                                              ||
 ||--------------------------------------------------------------||
 ||  INTERACTION  OR  TYPE  |  GRAND TOTAL | Fully/Partly FROZEN ||
 ||-------------------------+--------------+---------------------||
 ||  all particles/sites    |        1000  |  F            0     ||
 ||  free particles         |        1000  |  F            0     ||
 ||  core-shell units       |           0  |  P            0     ||
 ||  constraint bond units  |           0  |  F            0     ||
 ||  PMF units              |           0  |  P         NONE     ||
 ||  rigid body units       |           0  |  F            0     ||
 ||  tethered atom units    |           0  |  F            0     ||
 ||  chemical bond units    |           0  |  F            0     ||
 ||  bond angle units       |           0  |  F            0     ||
 ||  dihedral angle units   |           0  |  F            0     ||
 ||  inversion angle units  |           0  |  F            0     ||
 \\==============================================================//


 *** bookkeeping DONE ***

 time elapsed since job start:        0.050 sec


 degrees of freedom break-down list
 ----------------------------------
 free particles                3000
 centre of mass                  -3
 non-periodicity                  0
 frozen free particles            0
 shell-pseudo                     0
 constrained                      0
 RB translational                 0
 RB rotational                    0
 ----------------------------------
 total (real)                  2997

 *** temperature setting DONE ***

 time elapsed since job start:        0.050 sec


 sample of starting configuration on node zero

        i       x(i)        y(i)        z(i)       vx(i)       vy(i)       vz(i)


        1 -1.2064E+01 -1.2064E+01 -1.2064E+01  8.3659E-02 -9.7525E-02 -8.1735E-02
       51 -1.2064E+01  1.5080E+00 -1.2064E+01 -2.6662E-02  9.2926E-02 -1.8292E-01
      101 -1.2064E+01 -1.2064E+01 -9.3497E+00  6.5730E-02  3.2314E-02 -1.4003E-01
      151 -1.2064E+01  1.5080E+00 -9.3497E+00  1.6045E-01  7.3478E-02 -4.0455E-02
      201 -1.2064E+01 -1.2064E+01 -6.6352E+00 -1.1699E-01  2.7595E-02  1.8385E-01
      251 -1.2064E+01  1.5080E+00 -6.6352E+00  3.3449E-02 -8.6025E-02 -7.1075E-03
      301 -1.2064E+01 -1.2064E+01 -3.9208E+00 -1.5954E-01  1.6564E-02 -1.1275E-02
      351 -1.2064E+01  1.5080E+00 -3.9208E+00  1.4205E-01  4.8165E-02  1.7776E-01
      401 -1.2064E+01 -1.2064E+01 -1.2064E+00 -1.3235E-01  1.8894E-01 -1.4609E-01
      451 -1.2064E+01  1.5080E+00 -1.2064E+00  4.7918E-03 -4.9002E-02  1.8661E-01
      501 -1.2064E+01 -1.2064E+01  1.5080E+00  9.1352E-03 -9.0995E-02 -3.8392E-02
      551 -1.2064E+01  1.5080E+00  1.5080E+00  1.5101E-02 -1.9212E-02  1.7715E-01
      601 -1.2064E+01 -1.2064E+01  4.2224E+00  1.0222E-01  3.0564E-02 -1.2451E-01
      651 -1.2064E+01  1.5080E+00  4.2224E+00  1.8555E-01 -1.4812E-01  1.7338E-02
      701 -1.2064E+01 -1.2064E+01  6.9368E+00 -9.6779E-02 -4.4124E-02  2.9930E-02
      751 -1.2064E+01  1.5080E+00  6.9368E+00  6.2972E-02  1.6714E-01 -1.2536E-01
      801 -1.2064E+01 -1.2064E+01  9.6513E+00  4.7338E-02  1.2008E-01  3.5757E-02
      851 -1.2064E+01  1.5080E+00  9.6513E+00  3.6415E-02  5.8348E-03 -6.8969E-02
      901 -1.2064E+01 -1.2064E+01  1.2366E+01 -3.0186E-02 -3.4832E-02 -1.2575E-01
      951 -1.2064E+01  1.5080E+00  1.2366E+01  8.1202E-03 -1.8134E-01  2.6398E-02



 time elapsed since job start:        0.050 sec

 forces evaluated at (re)start for VV integration...

 ----------------------------------------------------------------------------------------------------------------------------------

          step     eng_tot    temp_tot     eng_cfg     eng_src     eng_cou     eng_bnd     eng_ang     eng_dih     eng_tet
      time(ps)      eng_pv    temp_rot     vir_cfg     vir_src     vir_cou     vir_bnd     vir_ang     vir_con     vir_tet
      cpu  (s)      volume    temp_shl     eng_shl     vir_shl       alpha        beta       gamma     vir_pmf       press

 ----------------------------------------------------------------------------------------------------------------------------------
             0  1.1875E+05  6.3811E-01  1.1874E+05  1.1874E+05  0.0000E+00  0.0000E+00  0.0000E+00  0.0000E+00  0.0000E+00
       0.00000  7.2008E+05  0.0000E+00 -1.8040E+06 -1.8040E+06  0.0000E+00  0.0000E+00  0.0000E+00  0.0000E+00  0.0000E+00
         0.059  2.0000E+04  0.0000E+00  0.0000E+00  0.0000E+00  9.0000E+01  9.0000E+01  9.0000E+01  0.0000E+00  4.9274E+02

       rolling  0.0000E+00  0.0000E+00  0.0000E+00  0.0000E+00  0.0000E+00  0.0000E+00  0.0000E+00  0.0000E+00  0.0000E+00
      averages  0.0000E+00  0.0000E+00  0.0000E+00  0.0000E+00  0.0000E+00  0.0000E+00  0.0000E+00  0.0000E+00  0.0000E+00
                0.0000E+00  0.0000E+00  0.0000E+00  0.0000E+00  0.0000E+00  0.0000E+00  0.0000E+00  0.0000E+00  0.0000E+00
 ----------------------------------------------------------------------------------------------------------------------------------
 ----------------------------------------------------------------------------------------------------------------------------------

          step     eng_tot    temp_tot     eng_cfg     eng_src     eng_cou     eng_bnd     eng_ang     eng_dih     eng_tet
      time(ps)      eng_pv    temp_rot     vir_cfg     vir_src     vir_cou     vir_bnd     vir_ang     vir_con     vir_tet
      cpu  (s)      volume    temp_shl     eng_shl     vir_shl       alpha        beta       gamma     vir_pmf       press

 ----------------------------------------------------------------------------------------------------------------------------------
             1  1.1875E+05  6.3493E-01  1.1874E+05  1.1874E+05  0.0000E+00  0.0000E+00  0.0000E+00  0.0000E+00  0.0000E+00
       0.00100  7.2009E+05  0.0000E+00 -1.8040E+06 -1.8040E+06  0.0000E+00  0.0000E+00  0.0000E+00  0.0000E+00  0.0000E+00
         0.062  2.0000E+04  0.0000E+00  0.0000E+00  0.0000E+00  9.0000E+01  9.0000E+01  9.0000E+01  0.0000E+00  4.9274E+02

       rolling  1.1875E+05  6.3493E-01  1.1874E+05  1.1874E+05  0.0000E+00  0.0000E+00  0.0000E+00  0.0000E+00  0.0000E+00
      averages  7.2009E+05  0.0000E+00 -1.8040E+06 -1.8040E+06  0.0000E+00  0.0000E+00  0.0000E+00  0.0000E+00  0.0000E+00
                2.0000E+04  0.0000E+00  0.0000E+00  0.0000E+00  9.0000E+01  9.0000E+01  9.0000E+01  0.0000E+00  4.9274E+02
 ----------------------------------------------------------------------------------------------------------------------------------
           100  1.1383E+05  8.5000E+01  1.1277E+05  1.1277E+05  0.0000E+00  0.0000E+00  0.0000E+00  0.0000E+00  0.0000E+00
       0.10000  6.9084E+05  0.0000E+00 -1.7289E+06 -1.7289E+06  0.0000E+00  0.0000E+00  0.0000E+00  0.0000E+00  0.0000E+00
         0.294  2.0000E+04  0.0000E+00  0.0000E+00  0.0000E+00  9.0000E+01  9.0000E+01  9.0000E+01  0.0000E+00  4.7281E+02

       rolling  1.1878E+05  9.0390E+01  1.1766E+05  1.1766E+05  0.0000E+00  0.0000E+00  0.0000E+00  0.0000E+00  0.0000E+00
      averages  7.1628E+05  0.0000E+00 -1.7902E+06 -1.7902E+06  0.0000E+00  0.0000E+00  0.0000E+00  0.0000E+00  0.0000E+00
                2.0000E+04  0.0000E+00  0.0000E+00  0.0000E+00  9.0000E+01  9.0000E+01  9.0000E+01  0.0000E+00  4.8960E+02
 ----------------------------------------------------------------------------------------------------------------------------------
           200  8.6940E+04  8.5000E+01  8.5881E+04  8.5881E+04  0.0000E+00  0.0000E+00  0.0000E+00  0.0000E+00  0.0000E+00
       0.20000  5.5169E+05  0.0000E+00 -1.3921E+06 -1.3921E+06  0.0000E+00  0.0000E+00  0.0000E+00  0.0000E+00  0.0000E+00
         0.535  2.0000E+04  0.0000E+00  0.0000E+00  0.0000E+00  9.0000E+01  9.0000E+01  9.0000E+01  0.0000E+00  3.8082E+02

       rolling  1.0126E+05  1.2452E+02  9.9709E+04  9.9709E+04  0.0000E+00  0.0000E+00  0.0000E+00  0.0000E+00  0.0000E+00
      averages  6.2404E+05  0.0000E+00 -1.5652E+06 -1.5652E+06  0.0000E+00  0.0000E+00  0.0000E+00  0.0000E+00  0.0000E+00
                2.0000E+04  0.0000E+00  0.0000E+00  0.0000E+00  9.0000E+01  9.0000E+01  9.0000E+01  0.0000E+00  4.2837E+02
 ----------------------------------------------------------------------------------------------------------------------------------
           300  7.2918E+04  8.5000E+01  7.1859E+04  7.1859E+04  0.0000E+00  0.0000E+00  0.0000E+00  0.0000E+00  0.0000E+00
       0.30000  4.7904E+05  0.0000E+00 -1.2162E+06 -1.2162E+06  0.0000E+00  0.0000E+00  0.0000E+00  0.0000E+00  0.0000E+00
         0.784  2.0000E+04  0.0000E+00  0.0000E+00  0.0000E+00  9.0000E+01  9.0000E+01  9.0000E+01  0.0000E+00  3.3278E+02

       rolling  7.8612E+04  1.0648E+02  7.7285E+04  7.7285E+04  0.0000E+00  0.0000E+00  0.0000E+00  0.0000E+00  0.0000E+00
      averages  5.0765E+05  0.0000E+00 -1.2845E+06 -1.2845E+06  0.0000E+00  0.0000E+00  0.0000E+00  0.0000E+00  0.0000E+00
                2.0000E+04  0.0000E+00  0.0000E+00  0.0000E+00  9.0000E+01  9.0000E+01  9.0000E+01  0.0000E+00  3.5156E+02
 ----------------------------------------------------------------------------------------------------------------------------------
           400  6.7711E+04  8.5000E+01  6.6652E+04  6.6652E+04  0.0000E+00  0.0000E+00  0.0000E+00  0.0000E+00  0.0000E+00
       0.40000  4.5181E+05  0.0000E+00 -1.1502E+06 -1.1502E+06  0.0000E+00  0.0000E+00  0.0000E+00  0.0000E+00  0.0000E+00
         1.039  2.0000E+04  0.0000E+00  0.0000E+00  0.0000E+00  9.0000E+01  9.0000E+01  9.0000E+01  0.0000E+00  3.1474E+02

       rolling  7.0278E+04  9.3191E+01  6.9117E+04  6.9117E+04  0.0000E+00  0.0000E+00  0.0000E+00  0.0000E+00  0.0000E+00
      averages  4.6487E+05  0.0000E+00 -1.1814E+06 -1.1814E+06  0.0000E+00  0.0000E+00  0.0000E+00  0.0000E+00  0.0000E+00
                2.0000E+04  0.0000E+00  0.0000E+00  0.0000E+00  9.0000E+01  9.0000E+01  9.0000E+01  0.0000E+00  3.2333E+02
 ----------------------------------------------------------------------------------------------------------------------------------
           500  6.3383E+04  8.5000E+01  6.2324E+04  6.2324E+04  0.0000E+00  0.0000E+00  0.0000E+00  0.0000E+00  0.0000E+00
       0.50000  4.2919E+05  0.0000E+00 -1.0953E+06 -1.0953E+06  0.0000E+00  0.0000E+00  0.0000E+00  0.0000E+00  0.0000E+00
         1.301  2.0000E+04  0.0000E+00  0.0000E+00  0.0000E+00  9.0000E+01  9.0000E+01  9.0000E+01  0.0000E+00  2.9975E+02

       rolling  6.5510E+04  9.1835E+01  6.4366E+04  6.4366E+04  0.0000E+00  0.0000E+00  0.0000E+00  0.0000E+00  0.0000E+00
      averages  4.4001E+05  0.0000E+00 -1.1212E+06 -1.1212E+06  0.0000E+00  0.0000E+00  0.0000E+00  0.0000E+00  0.0000E+00
                2.0000E+04  0.0000E+00  0.0000E+00  0.0000E+00  9.0000E+01  9.0000E+01  9.0000E+01  0.0000E+00  3.0687E+02
 ----------------------------------------------------------------------------------------------------------------------------------
           600  6.0114E+04  8.5000E+01  5.9055E+04  5.9055E+04  0.0000E+00  0.0000E+00  0.0000E+00  0.0000E+00  0.0000E+00
       0.60000  4.1210E+05  0.0000E+00 -1.0538E+06 -1.0538E+06  0.0000E+00  0.0000E+00  0.0000E+00  0.0000E+00  0.0000E+00
         1.557  2.0000E+04  0.0000E+00  0.0000E+00  0.0000E+00  9.0000E+01  9.0000E+01  9.0000E+01  0.0000E+00  2.8842E+02

       rolling  6.1728E+04  9.0191E+01  6.0604E+04  6.0604E+04  0.0000E+00  0.0000E+00  0.0000E+00  0.0000E+00  0.0000E+00
      averages  4.2031E+05  0.0000E+00 -1.0735E+06 -1.0735E+06  0.0000E+00  0.0000E+00  0.0000E+00  0.0000E+00  0.0000E+00
                2.0000E+04  0.0000E+00  0.0000E+00  0.0000E+00  9.0000E+01  9.0000E+01  9.0000E+01  0.0000E+00  2.9382E+02
 ----------------------------------------------------------------------------------------------------------------------------------
           700  5.7836E+04  8.5000E+01  5.6777E+04  5.6777E+04  0.0000E+00  0.0000E+00  0.0000E+00  0.0000E+00  0.0000E+00
       0.70000  4.0017E+05  0.0000E+00 -1.0249E+06 -1.0249E+06  0.0000E+00  0.0000E+00  0.0000E+00  0.0000E+00  0.0000E+00
         1.816  2.0000E+04  0.0000E+00  0.0000E+00  0.0000E+00  9.0000E+01  9.0000E+01  9.0000E+01  0.0000E+00  2.8052E+02

       rolling  5.8930E+04  8.8638E+01  5.7826E+04  5.7826E+04  0.0000E+00  0.0000E+00  0.0000E+00  0.0000E+00  0.0000E+00
      averages  4.0575E+05  0.0000E+00 -1.0382E+06 -1.0382E+06  0.0000E+00  0.0000E+00  0.0000E+00  0.0000E+00  0.0000E+00
                2.0000E+04  0.0000E+00  0.0000E+00  0.0000E+00  9.0000E+01  9.0000E+01  9.0000E+01  0.0000E+00  2.8419E+02
 ----------------------------------------------------------------------------------------------------------------------------------
 ----------------------------------------------------------------------------------------------------------------------------------

          step     eng_tot    temp_tot     eng_cfg     eng_src     eng_cou     eng_bnd     eng_ang     eng_dih     eng_tet
      time(ps)      eng_pv    temp_rot     vir_cfg     vir_src     vir_cou     vir_bnd     vir_ang     vir_con     vir_tet
      cpu  (s)      volume    temp_shl     eng_shl     vir_shl       alpha        beta       gamma     vir_pmf       press

 ----------------------------------------------------------------------------------------------------------------------------------
           800  5.6184E+04  8.5000E+01  5.5125E+04  5.5125E+04  0.0000E+00  0.0000E+00  0.0000E+00  0.0000E+00  0.0000E+00
       0.80000  3.9146E+05  0.0000E+00 -1.0037E+06 -1.0037E+06  0.0000E+00  0.0000E+00  0.0000E+00  0.0000E+00  0.0000E+00
         2.074  2.0000E+04  0.0000E+00  0.0000E+00  0.0000E+00  9.0000E+01  9.0000E+01  9.0000E+01  0.0000E+00  2.7473E+02

       rolling  5.7007E+04  8.7644E+01  5.5916E+04  5.5916E+04  0.0000E+00  0.0000E+00  0.0000E+00  0.0000E+00  0.0000E+00
      averages  3.9569E+05  0.0000E+00 -1.0139E+06 -1.0139E+06  0.0000E+00  0.0000E+00  0.0000E+00  0.0000E+00  0.0000E+00
                2.0000E+04  0.0000E+00  0.0000E+00  0.0000E+00  9.0000E+01  9.0000E+01  9.0000E+01  0.0000E+00  2.7752E+02
 ----------------------------------------------------------------------------------------------------------------------------------
           900  5.4687E+04  8.5000E+01  5.3628E+04  5.3628E+04  0.0000E+00  0.0000E+00  0.0000E+00  0.0000E+00  0.0000E+00
       0.90000  3.8359E+05  0.0000E+00 -9.8459E+05 -9.8459E+05  0.0000E+00  0.0000E+00  0.0000E+00  0.0000E+00  0.0000E+00
         2.336  2.0000E+04  0.0000E+00  0.0000E+00  0.0000E+00  9.0000E+01  9.0000E+01  9.0000E+01  0.0000E+00  2.6951E+02

       rolling  5.5449E+04  8.7394E+01  5.4360E+04  5.4360E+04  0.0000E+00  0.0000E+00  0.0000E+00  0.0000E+00  0.0000E+00
      averages  3.8749E+05  0.0000E+00 -9.9394E+05 -9.9394E+05  0.0000E+00  0.0000E+00  0.0000E+00  0.0000E+00  0.0000E+00
                2.0000E+04  0.0000E+00  0.0000E+00  0.0000E+00  9.0000E+01  9.0000E+01  9.0000E+01  0.0000E+00  2.7208E+02
 ----------------------------------------------------------------------------------------------------------------------------------
          1000  5.3497E+04  8.5000E+01  5.2438E+04  5.2438E+04  0.0000E+00  0.0000E+00  0.0000E+00  0.0000E+00  0.0000E+00
       1.00000  3.7732E+05  0.0000E+00 -9.6934E+05 -9.6934E+05  0.0000E+00  0.0000E+00  0.0000E+00  0.0000E+00  0.0000E+00
         2.607  2.0000E+04  0.0000E+00  0.0000E+00  0.0000E+00  9.0000E+01  9.0000E+01  9.0000E+01  0.0000E+00  2.6534E+02

       rolling  5.4048E+04  8.6916E+01  5.2966E+04  5.2966E+04  0.0000E+00  0.0000E+00  0.0000E+00  0.0000E+00  0.0000E+00
      averages  3.8014E+05  0.0000E+00 -9.7612E+05 -9.7612E+05  0.0000E+00  0.0000E+00  0.0000E+00  0.0000E+00  0.0000E+00
                2.0000E+04  0.0000E+00  0.0000E+00  0.0000E+00  9.0000E+01  9.0000E+01  9.0000E+01  0.0000E+00  2.6721E+02
 ----------------------------------------------------------------------------------------------------------------------------------

 switching off temperature scaling at step 1000

 ----------------------------------------------------------------------------------------------------------------------------------
          1100  5.3499E+04  1.1896E+02  5.2017E+04  5.2017E+04  0.0000E+00  0.0000E+00  0.0000E+00  0.0000E+00  0.0000E+00
       1.10000  3.7580E+05  0.0000E+00 -9.6395E+05 -9.6395E+05  0.0000E+00  0.0000E+00  0.0000E+00  0.0000E+00  0.0000E+00
         2.970  2.0000E+04  0.0000E+00  0.0000E+00  0.0000E+00  9.0000E+01  9.0000E+01  9.0000E+01  0.0000E+00  2.6410E+02

       rolling  5.3498E+04  1.0689E+02  5.2166E+04  5.2166E+04  0.0000E+00  0.0000E+00  0.0000E+00  0.0000E+00  0.0000E+00
      averages  3.7634E+05  0.0000E+00 -9.6585E+05 -9.6585E+05  0.0000E+00  0.0000E+00  0.0000E+00  0.0000E+00  0.0000E+00
                2.0000E+04  0.0000E+00  0.0000E+00  0.0000E+00  9.0000E+01  9.0000E+01  9.0000E+01  0.0000E+00  2.6454E+02
 ----------------------------------------------------------------------------------------------------------------------------------
          1200  5.3498E+04  1.3792E+02  5.1779E+04  5.1779E+04  0.0000E+00  0.0000E+00  0.0000E+00  0.0000E+00  0.0000E+00
       1.20000  3.7495E+05  0.0000E+00 -9.6091E+05 -9.6091E+05  0.0000E+00  0.0000E+00  0.0000E+00  0.0000E+00  0.0000E+00
         3.240  2.0000E+04  0.0000E+00  0.0000E+00  0.0000E+00  9.0000E+01  9.0000E+01  9.0000E+01  0.0000E+00  2.6340E+02

       rolling  5.3498E+04  1.2813E+02  5.1902E+04  5.1902E+04  0.0000E+00  0.0000E+00  0.0000E+00  0.0000E+00  0.0000E+00
      averages  3.7539E+05  0.0000E+00 -9.6250E+05 -9.6250E+05  0.0000E+00  0.0000E+00  0.0000E+00  0.0000E+00  0.0000E+00
                2.0000E+04  0.0000E+00  0.0000E+00  0.0000E+00  9.0000E+01  9.0000E+01  9.0000E+01  0.0000E+00  2.6377E+02
 ----------------------------------------------------------------------------------------------------------------------------------
          1300  5.3499E+04  1.3544E+02  5.1812E+04  5.1812E+04  0.0000E+00  0.0000E+00  0.0000E+00  0.0000E+00  0.0000E+00
       1.30000  3.7506E+05  0.0000E+00 -9.6130E+05 -9.6130E+05  0.0000E+00  0.0000E+00  0.0000E+00  0.0000E+00  0.0000E+00
         3.505  2.0000E+04  0.0000E+00  0.0000E+00  0.0000E+00  9.0000E+01  9.0000E+01  9.0000E+01  0.0000E+00  2.6349E+02

       rolling  5.3498E+04  1.3732E+02  5.1787E+04  5.1787E+04  0.0000E+00  0.0000E+00  0.0000E+00  0.0000E+00  0.0000E+00
      averages  3.7497E+05  0.0000E+00 -9.6100E+05 -9.6100E+05  0.0000E+00  0.0000E+00  0.0000E+00  0.0000E+00  0.0000E+00
                2.0000E+04  0.0000E+00  0.0000E+00  0.0000E+00  9.0000E+01  9.0000E+01  9.0000E+01  0.0000E+00  2.6342E+02
 ----------------------------------------------------------------------------------------------------------------------------------
          1400  5.3501E+04  1.4959E+02  5.1637E+04  5.1637E+04  0.0000E+00  0.0000E+00  0.0000E+00  0.0000E+00  0.0000E+00
       1.40000  3.7440E+05  0.0000E+00 -9.5898E+05 -9.5898E+05  0.0000E+00  0.0000E+00  0.0000E+00  0.0000E+00  0.0000E+00
         3.768  2.0000E+04  0.0000E+00  0.0000E+00  0.0000E+00  9.0000E+01  9.0000E+01  9.0000E+01  0.0000E+00  2.6295E+02

       rolling  5.3499E+04  1.4434E+02  5.1701E+04  5.1701E+04  0.0000E+00  0.0000E+00  0.0000E+00  0.0000E+00  0.0000E+00
      averages  3.7466E+05  0.0000E+00 -9.5988E+05 -9.5988E+05  0.0000E+00  0.0000E+00  0.0000E+00  0.0000E+00  0.0000E+00
                2.0000E+04  0.0000E+00  0.0000E+00  0.0000E+00  9.0000E+01  9.0000E+01  9.0000E+01  0.0000E+00  2.6316E+02
 ----------------------------------------------------------------------------------------------------------------------------------
          1500  5.3501E+04  1.7017E+02  5.1381E+04  5.1381E+04  0.0000E+00  0.0000E+00  0.0000E+00  0.0000E+00  0.0000E+00
       1.50000  3.7349E+05  0.0000E+00 -9.5572E+05 -9.5572E+05  0.0000E+00  0.0000E+00  0.0000E+00  0.0000E+00  0.0000E+00
         4.036  2.0000E+04  0.0000E+00  0.0000E+00  0.0000E+00  9.0000E+01  9.0000E+01  9.0000E+01  0.0000E+00  2.6220E+02

       rolling  5.3501E+04  1.6184E+02  5.1485E+04  5.1485E+04  0.0000E+00  0.0000E+00  0.0000E+00  0.0000E+00  0.0000E+00
      averages  3.7386E+05  0.0000E+00 -9.5704E+05 -9.5704E+05  0.0000E+00  0.0000E+00  0.0000E+00  0.0000E+00  0.0000E+00
                2.0000E+04  0.0000E+00  0.0000E+00  0.0000E+00  9.0000E+01  9.0000E+01  9.0000E+01  0.0000E+00  2.6250E+02
 ----------------------------------------------------------------------------------------------------------------------------------
 ----------------------------------------------------------------------------------------------------------------------------------

          step     eng_tot    temp_tot     eng_cfg     eng_src     eng_cou     eng_bnd     eng_ang     eng_dih     eng_tet
      time(ps)      eng_pv    temp_rot     vir_cfg     vir_src     vir_cou     vir_bnd     vir_ang     vir_con     vir_tet
      cpu  (s)      volume    temp_shl     eng_shl     vir_shl       alpha        beta       gamma     vir_pmf       press

 ----------------------------------------------------------------------------------------------------------------------------------
          1600  5.3503E+04  1.7663E+02  5.1302E+04  5.1302E+04  0.0000E+00  0.0000E+00  0.0000E+00  0.0000E+00  0.0000E+00
       1.60000  3.7320E+05  0.0000E+00 -9.5468E+05 -9.5468E+05  0.0000E+00  0.0000E+00  0.0000E+00  0.0000E+00  0.0000E+00
         4.300  2.0000E+04  0.0000E+00  0.0000E+00  0.0000E+00  9.0000E+01  9.0000E+01  9.0000E+01  0.0000E+00  2.6196E+02

       rolling  5.3502E+04  1.7191E+02  5.1360E+04  5.1360E+04  0.0000E+00  0.0000E+00  0.0000E+00  0.0000E+00  0.0000E+00
      averages  3.7341E+05  0.0000E+00 -9.5544E+05 -9.5544E+05  0.0000E+00  0.0000E+00  0.0000E+00  0.0000E+00  0.0000E+00
                2.0000E+04  0.0000E+00  0.0000E+00  0.0000E+00  9.0000E+01  9.0000E+01  9.0000E+01  0.0000E+00  2.6214E+02
 ----------------------------------------------------------------------------------------------------------------------------------
          1700  5.3503E+04  1.7276E+02  5.1351E+04  5.1351E+04  0.0000E+00  0.0000E+00  0.0000E+00  0.0000E+00  0.0000E+00
       1.70000  3.7335E+05  0.0000E+00 -9.5524E+05 -9.5524E+05  0.0000E+00  0.0000E+00  0.0000E+00  0.0000E+00  0.0000E+00
         4.560  2.0000E+04  0.0000E+00  0.0000E+00  0.0000E+00  9.0000E+01  9.0000E+01  9.0000E+01  0.0000E+00  2.6209E+02

       rolling  5.3502E+04  1.7387E+02  5.1336E+04  5.1336E+04  0.0000E+00  0.0000E+00  0.0000E+00  0.0000E+00  0.0000E+00
      averages  3.7331E+05  0.0000E+00 -9.5510E+05 -9.5510E+05  0.0000E+00  0.0000E+00  0.0000E+00  0.0000E+00  0.0000E+00
                2.0000E+04  0.0000E+00  0.0000E+00  0.0000E+00  9.0000E+01  9.0000E+01  9.0000E+01  0.0000E+00  2.6206E+02
 ----------------------------------------------------------------------------------------------------------------------------------
          1800  5.3500E+04  1.8503E+02  5.1195E+04  5.1195E+04  0.0000E+00  0.0000E+00  0.0000E+00  0.0000E+00  0.0000E+00
       1.80000  3.7279E+05  0.0000E+00 -9.5327E+05 -9.5327E+05  0.0000E+00  0.0000E+00  0.0000E+00  0.0000E+00  0.0000E+00
         4.820  2.0000E+04  0.0000E+00  0.0000E+00  0.0000E+00  9.0000E+01  9.0000E+01  9.0000E+01  0.0000E+00  2.6163E+02

       rolling  5.3502E+04  1.8009E+02  5.1259E+04  5.1259E+04  0.0000E+00  0.0000E+00  0.0000E+00  0.0000E+00  0.0000E+00
      averages  3.7302E+05  0.0000E+00 -9.5406E+05 -9.5406E+05  0.0000E+00  0.0000E+00  0.0000E+00  0.0000E+00  0.0000E+00
                2.0000E+04  0.0000E+00  0.0000E+00  0.0000E+00  9.0000E+01  9.0000E+01  9.0000E+01  0.0000E+00  2.6181E+02
 ----------------------------------------------------------------------------------------------------------------------------------
          1900  5.3504E+04  1.8179E+02  5.1239E+04  5.1239E+04  0.0000E+00  0.0000E+00  0.0000E+00  0.0000E+00  0.0000E+00
       1.90000  3.7295E+05  0.0000E+00 -9.5381E+05 -9.5381E+05  0.0000E+00  0.0000E+00  0.0000E+00  0.0000E+00  0.0000E+00
         5.081  2.0000E+04  0.0000E+00  0.0000E+00  0.0000E+00  9.0000E+01  9.0000E+01  9.0000E+01  0.0000E+00  2.6176E+02

       rolling  5.3502E+04  1.8180E+02  5.1236E+04  5.1236E+04  0.0000E+00  0.0000E+00  0.0000E+00  0.0000E+00  0.0000E+00
      averages  3.7294E+05  0.0000E+00 -9.5379E+05 -9.5379E+05  0.0000E+00  0.0000E+00  0.0000E+00  0.0000E+00  0.0000E+00
                2.0000E+04  0.0000E+00  0.0000E+00  0.0000E+00  9.0000E+01  9.0000E+01  9.0000E+01  0.0000E+00  2.6175E+02
 ----------------------------------------------------------------------------------------------------------------------------------
          2000  5.3504E+04  1.9290E+02  5.1101E+04  5.1101E+04  0.0000E+00  0.0000E+00  0.0000E+00  0.0000E+00  0.0000E+00
       2.00000  3.7246E+05  0.0000E+00 -9.5206E+05 -9.5206E+05  0.0000E+00  0.0000E+00  0.0000E+00  0.0000E+00  0.0000E+00
         5.340  2.0000E+04  0.0000E+00  0.0000E+00  0.0000E+00  9.0000E+01  9.0000E+01  9.0000E+01  0.0000E+00  2.6136E+02

       rolling  5.3504E+04  1.8545E+02  5.1193E+04  5.1193E+04  0.0000E+00  0.0000E+00  0.0000E+00  0.0000E+00  0.0000E+00
      averages  3.7279E+05  0.0000E+00 -9.5324E+05 -9.5324E+05  0.0000E+00  0.0000E+00  0.0000E+00  0.0000E+00  0.0000E+00
                2.0000E+04  0.0000E+00  0.0000E+00  0.0000E+00  9.0000E+01  9.0000E+01  9.0000E+01  0.0000E+00  2.6163E+02
 ----------------------------------------------------------------------------------------------------------------------------------
          2100  5.3504E+04  1.9607E+02  5.1061E+04  5.1061E+04  0.0000E+00  0.0000E+00  0.0000E+00  0.0000E+00  0.0000E+00
       2.10000  3.7231E+05  0.0000E+00 -9.5153E+05 -9.5153E+05  0.0000E+00  0.0000E+00  0.0000E+00  0.0000E+00  0.0000E+00
         5.709  2.0000E+04  0.0000E+00  0.0000E+00  0.0000E+00  9.0000E+01  9.0000E+01  9.0000E+01  0.0000E+00  2.6123E+02

       rolling  5.3504E+04  1.9244E+02  5.1106E+04  5.1106E+04  0.0000E+00  0.0000E+00  0.0000E+00  0.0000E+00  0.0000E+00
      averages  3.7247E+05  0.0000E+00 -9.5210E+05 -9.5210E+05  0.0000E+00  0.0000E+00  0.0000E+00  0.0000E+00  0.0000E+00
                2.0000E+04  0.0000E+00  0.0000E+00  0.0000E+00  9.0000E+01  9.0000E+01  9.0000E+01  0.0000E+00  2.6136E+02
 ----------------------------------------------------------------------------------------------------------------------------------
          2200  5.3505E+04  2.0298E+02  5.0976E+04  5.0976E+04  0.0000E+00  0.0000E+00  0.0000E+00  0.0000E+00  0.0000E+00
       2.20000  3.7200E+05  0.0000E+00 -9.5042E+05 -9.5042E+05  0.0000E+00  0.0000E+00  0.0000E+00  0.0000E+00  0.0000E+00
         5.972  2.0000E+04  0.0000E+00  0.0000E+00  0.0000E+00  9.0000E+01  9.0000E+01  9.0000E+01  0.0000E+00  2.6098E+02

       rolling  5.3504E+04  1.9781E+02  5.1040E+04  5.1040E+04  0.0000E+00  0.0000E+00  0.0000E+00  0.0000E+00  0.0000E+00
      averages  3.7223E+05  0.0000E+00 -9.5126E+05 -9.5126E+05  0.0000E+00  0.0000E+00  0.0000E+00  0.0000E+00  0.0000E+00
                2.0000E+04  0.0000E+00  0.0000E+00  0.0000E+00  9.0000E+01  9.0000E+01  9.0000E+01  0.0000E+00  2.6117E+02
 ----------------------------------------------------------------------------------------------------------------------------------
          2300  5.3505E+04  2.1619E+02  5.0812E+04  5.0812E+04  0.0000E+00  0.0000E+00  0.0000E+00  0.0000E+00  0.0000E+00
       2.30000  3.7142E+05  0.0000E+00 -9.4837E+05 -9.4837E+05  0.0000E+00  0.0000E+00  0.0000E+00  0.0000E+00  0.0000E+00
         6.232  2.0000E+04  0.0000E+00  0.0000E+00  0.0000E+00  9.0000E+01  9.0000E+01  9.0000E+01  0.0000E+00  2.6051E+02

       rolling  5.3504E+04  2.0628E+02  5.0934E+04  5.0934E+04  0.0000E+00  0.0000E+00  0.0000E+00  0.0000E+00  0.0000E+00
      averages  3.7186E+05  0.0000E+00 -9.4994E+05 -9.4994E+05  0.0000E+00  0.0000E+00  0.0000E+00  0.0000E+00  0.0000E+00
                2.0000E+04  0.0000E+00  0.0000E+00  0.0000E+00  9.0000E+01  9.0000E+01  9.0000E+01  0.0000E+00  2.6087E+02
 ----------------------------------------------------------------------------------------------------------------------------------
 ----------------------------------------------------------------------------------------------------------------------------------

          step     eng_tot    temp_tot     eng_cfg     eng_src     eng_cou     eng_bnd     eng_ang     eng_dih     eng_tet
      time(ps)      eng_pv    temp_rot     vir_cfg     vir_src     vir_cou     vir_bnd     vir_ang     vir_con     vir_tet
      cpu  (s)      volume    temp_shl     eng_shl     vir_shl       alpha        beta       gamma     vir_pmf       press

 ----------------------------------------------------------------------------------------------------------------------------------
          2400  5.3504E+04  2.1288E+02  5.0851E+04  5.0851E+04  0.0000E+00  0.0000E+00  0.0000E+00  0.0000E+00  0.0000E+00
       2.40000  3.7156E+05  0.0000E+00 -9.4887E+05 -9.4887E+05  0.0000E+00  0.0000E+00  0.0000E+00  0.0000E+00  0.0000E+00
         6.505  2.0000E+04  0.0000E+00  0.0000E+00  0.0000E+00  9.0000E+01  9.0000E+01  9.0000E+01  0.0000E+00  2.6062E+02

       rolling  5.3503E+04  2.1118E+02  5.0872E+04  5.0872E+04  0.0000E+00  0.0000E+00  0.0000E+00  0.0000E+00  0.0000E+00
      averages  3.7164E+05  0.0000E+00 -9.4914E+05 -9.4914E+05  0.0000E+00  0.0000E+00  0.0000E+00  0.0000E+00  0.0000E+00
                2.0000E+04  0.0000E+00  0.0000E+00  0.0000E+00  9.0000E+01  9.0000E+01  9.0000E+01  0.0000E+00  2.6068E+02
 ----------------------------------------------------------------------------------------------------------------------------------
          2500  5.3505E+04  2.2964E+02  5.0644E+04  5.0644E+04  0.0000E+00  0.0000E+00  0.0000E+00  0.0000E+00  0.0000E+00
       2.50000  3.7082E+05  0.0000E+00 -9.4623E+05 -9.4623E+05  0.0000E+00  0.0000E+00  0.0000E+00  0.0000E+00  0.0000E+00
         6.773  2.0000E+04  0.0000E+00  0.0000E+00  0.0000E+00  9.0000E+01  9.0000E+01  9.0000E+01  0.0000E+00  2.6001E+02

       rolling  5.3506E+04  2.2417E+02  5.0713E+04  5.0713E+04  0.0000E+00  0.0000E+00  0.0000E+00  0.0000E+00  0.0000E+00
      averages  3.7106E+05  0.0000E+00 -9.4708E+05 -9.4708E+05  0.0000E+00  0.0000E+00  0.0000E+00  0.0000E+00  0.0000E+00
                2.0000E+04  0.0000E+00  0.0000E+00  0.0000E+00  9.0000E+01  9.0000E+01  9.0000E+01  0.0000E+00  2.6021E+02
 ----------------------------------------------------------------------------------------------------------------------------------
          2600  5.3506E+04  2.2697E+02  5.0679E+04  5.0679E+04  0.0000E+00  0.0000E+00  0.0000E+00  0.0000E+00  0.0000E+00
       2.60000  3.7094E+05  0.0000E+00 -9.4663E+05 -9.4663E+05  0.0000E+00  0.0000E+00  0.0000E+00  0.0000E+00  0.0000E+00
         7.038  2.0000E+04  0.0000E+00  0.0000E+00  0.0000E+00  9.0000E+01  9.0000E+01  9.0000E+01  0.0000E+00  2.6011E+02

       rolling  5.3506E+04  2.2649E+02  5.0684E+04  5.0684E+04  0.0000E+00  0.0000E+00  0.0000E+00  0.0000E+00  0.0000E+00
      averages  3.7096E+05  0.0000E+00 -9.4671E+05 -9.4671E+05  0.0000E+00  0.0000E+00  0.0000E+00  0.0000E+00  0.0000E+00
                2.0000E+04  0.0000E+00  0.0000E+00  0.0000E+00  9.0000E+01  9.0000E+01  9.0000E+01  0.0000E+00  2.6012E+02
 ----------------------------------------------------------------------------------------------------------------------------------
          2700  5.3508E+04  2.2703E+02  5.0679E+04  5.0679E+04  0.0000E+00  0.0000E+00  0.0000E+00  0.0000E+00  0.0000E+00
       2.70000  3.7093E+05  0.0000E+00 -9.4660E+05 -9.4660E+05  0.0000E+00  0.0000E+00  0.0000E+00  0.0000E+00  0.0000E+00
         7.304  2.0000E+04  0.0000E+00  0.0000E+00  0.0000E+00  9.0000E+01  9.0000E+01  9.0000E+01  0.0000E+00  2.6010E+02

       rolling  5.3506E+04  2.2759E+02  5.0671E+04  5.0671E+04  0.0000E+00  0.0000E+00  0.0000E+00  0.0000E+00  0.0000E+00
      averages  3.7090E+05  0.0000E+00 -9.4650E+05 -9.4650E+05  0.0000E+00  0.0000E+00  0.0000E+00  0.0000E+00  0.0000E+00
                2.0000E+04  0.0000E+00  0.0000E+00  0.0000E+00  9.0000E+01  9.0000E+01  9.0000E+01  0.0000E+00  2.6008E+02
 ----------------------------------------------------------------------------------------------------------------------------------
          2800  5.3508E+04  2.3151E+02  5.0623E+04  5.0623E+04  0.0000E+00  0.0000E+00  0.0000E+00  0.0000E+00  0.0000E+00
       2.80000  3.7075E+05  0.0000E+00 -9.4595E+05 -9.4595E+05  0.0000E+00  0.0000E+00  0.0000E+00  0.0000E+00  0.0000E+00
         7.567  2.0000E+04  0.0000E+00  0.0000E+00  0.0000E+00  9.0000E+01  9.0000E+01  9.0000E+01  0.0000E+00  2.5995E+02

       rolling  5.3508E+04  2.3429E+02  5.0589E+04  5.0589E+04  0.0000E+00  0.0000E+00  0.0000E+00  0.0000E+00  0.0000E+00
      averages  3.7060E+05  0.0000E+00 -9.4545E+05 -9.4545E+05  0.0000E+00  0.0000E+00  0.0000E+00  0.0000E+00  0.0000E+00
                2.0000E+04  0.0000E+00  0.0000E+00  0.0000E+00  9.0000E+01  9.0000E+01  9.0000E+01  0.0000E+00  2.5983E+02
 ----------------------------------------------------------------------------------------------------------------------------------
          2900  5.3508E+04  2.3183E+02  5.0619E+04  5.0619E+04  0.0000E+00  0.0000E+00  0.0000E+00  0.0000E+00  0.0000E+00
       2.90000  3.7069E+05  0.0000E+00 -9.4577E+05 -9.4577E+05  0.0000E+00  0.0000E+00  0.0000E+00  0.0000E+00  0.0000E+00
         7.841  2.0000E+04  0.0000E+00  0.0000E+00  0.0000E+00  9.0000E+01  9.0000E+01  9.0000E+01  0.0000E+00  2.5990E+02

       rolling  5.3509E+04  2.3338E+02  5.0602E+04  5.0602E+04  0.0000E+00  0.0000E+00  0.0000E+00  0.0000E+00  0.0000E+00
      averages  3.7065E+05  0.0000E+00 -9.4560E+05 -9.4560E+05  0.0000E+00  0.0000E+00  0.0000E+00  0.0000E+00  0.0000E+00
                2.0000E+04  0.0000E+00  0.0000E+00  0.0000E+00  9.0000E+01  9.0000E+01  9.0000E+01  0.0000E+00  2.5987E+02
 ----------------------------------------------------------------------------------------------------------------------------------
          3000  5.3508E+04  2.4853E+02  5.0412E+04  5.0412E+04  0.0000E+00  0.0000E+00  0.0000E+00  0.0000E+00  0.0000E+00
       3.00000  3.6995E+05  0.0000E+00 -9.4314E+05 -9.4314E+05  0.0000E+00  0.0000E+00  0.0000E+00  0.0000E+00  0.0000E+00
         8.107  2.0000E+04  0.0000E+00  0.0000E+00  0.0000E+00  9.0000E+01  9.0000E+01  9.0000E+01  0.0000E+00  2.5930E+02

       rolling  5.3508E+04  2.3693E+02  5.0556E+04  5.0556E+04  0.0000E+00  0.0000E+00  0.0000E+00  0.0000E+00  0.0000E+00
      averages  3.7047E+05  0.0000E+00 -9.4498E+05 -9.4498E+05  0.0000E+00  0.0000E+00  0.0000E+00  0.0000E+00  0.0000E+00
                2.0000E+04  0.0000E+00  0.0000E+00  0.0000E+00  9.0000E+01  9.0000E+01  9.0000E+01  0.0000E+00  2.5972E+02
 ----------------------------------------------------------------------------------------------------------------------------------
          3100  5.3507E+04  2.3790E+02  5.0543E+04  5.0543E+04  0.0000E+00  0.0000E+00  0.0000E+00  0.0000E+00  0.0000E+00
       3.10000  3.7041E+05  0.0000E+00 -9.4479E+05 -9.4479E+05  0.0000E+00  0.0000E+00  0.0000E+00  0.0000E+00  0.0000E+00
         8.504  2.0000E+04  0.0000E+00  0.0000E+00  0.0000E+00  9.0000E+01  9.0000E+01  9.0000E+01  0.0000E+00  2.5968E+02

       rolling  5.3506E+04  2.4142E+02  5.0499E+04  5.0499E+04  0.0000E+00  0.0000E+00  0.0000E+00  0.0000E+00  0.0000E+00
      averages  3.7026E+05  0.0000E+00 -9.4425E+05 -9.4425E+05  0.0000E+00  0.0000E+00  0.0000E+00  0.0000E+00  0.0000E+00
                2.0000E+04  0.0000E+00  0.0000E+00  0.0000E+00  9.0000E+01  9.0000E+01  9.0000E+01  0.0000E+00  2.5955E+02
 ----------------------------------------------------------------------------------------------------------------------------------
 ----------------------------------------------------------------------------------------------------------------------------------

          step     eng_tot    temp_tot     eng_cfg     eng_src     eng_cou     eng_bnd     eng_ang     eng_dih     eng_tet
      time(ps)      eng_pv    temp_rot     vir_cfg     vir_src     vir_cou     vir_bnd     vir_ang     vir_con     vir_tet
      cpu  (s)      volume    temp_shl     eng_shl     vir_shl       alpha        beta       gamma     vir_pmf       press

 ----------------------------------------------------------------------------------------------------------------------------------
          3200  5.3505E+04  2.3817E+02  5.0538E+04  5.0538E+04  0.0000E+00  0.0000E+00  0.0000E+00  0.0000E+00  0.0000E+00
       3.20000  3.7036E+05  0.0000E+00 -9.4463E+05 -9.4463E+05  0.0000E+00  0.0000E+00  0.0000E+00  0.0000E+00  0.0000E+00
         8.770  2.0000E+04  0.0000E+00  0.0000E+00  0.0000E+00  9.0000E+01  9.0000E+01  9.0000E+01  0.0000E+00  2.5964E+02

       rolling  5.3505E+04  2.3880E+02  5.0530E+04  5.0530E+04  0.0000E+00  0.0000E+00  0.0000E+00  0.0000E+00  0.0000E+00
      averages  3.7036E+05  0.0000E+00 -9.4462E+05 -9.4462E+05  0.0000E+00  0.0000E+00  0.0000E+00  0.0000E+00  0.0000E+00
                2.0000E+04  0.0000E+00  0.0000E+00  0.0000E+00  9.0000E+01  9.0000E+01  9.0000E+01  0.0000E+00  2.5964E+02
 ----------------------------------------------------------------------------------------------------------------------------------
          3300  5.3506E+04  2.2980E+02  5.0643E+04  5.0643E+04  0.0000E+00  0.0000E+00  0.0000E+00  0.0000E+00  0.0000E+00
       3.30000  3.7076E+05  0.0000E+00 -9.4603E+05 -9.4603E+05  0.0000E+00  0.0000E+00  0.0000E+00  0.0000E+00  0.0000E+00
         9.038  2.0000E+04  0.0000E+00  0.0000E+00  0.0000E+00  9.0000E+01  9.0000E+01  9.0000E+01  0.0000E+00  2.5996E+02

       rolling  5.3506E+04  2.3753E+02  5.0547E+04  5.0547E+04  0.0000E+00  0.0000E+00  0.0000E+00  0.0000E+00  0.0000E+00
      averages  3.7042E+05  0.0000E+00 -9.4481E+05 -9.4481E+05  0.0000E+00  0.0000E+00  0.0000E+00  0.0000E+00  0.0000E+00
                2.0000E+04  0.0000E+00  0.0000E+00  0.0000E+00  9.0000E+01  9.0000E+01  9.0000E+01  0.0000E+00  2.5968E+02
 ----------------------------------------------------------------------------------------------------------------------------------
          3400  5.3504E+04  2.3608E+02  5.0563E+04  5.0563E+04  0.0000E+00  0.0000E+00  0.0000E+00  0.0000E+00  0.0000E+00
       3.40000  3.7049E+05  0.0000E+00 -9.4507E+05 -9.4507E+05  0.0000E+00  0.0000E+00  0.0000E+00  0.0000E+00  0.0000E+00
         9.301  2.0000E+04  0.0000E+00  0.0000E+00  0.0000E+00  9.0000E+01  9.0000E+01  9.0000E+01  0.0000E+00  2.5974E+02

       rolling  5.3506E+04  2.4161E+02  5.0496E+04  5.0496E+04  0.0000E+00  0.0000E+00  0.0000E+00  0.0000E+00  0.0000E+00
      averages  3.7024E+05  0.0000E+00 -9.4419E+05 -9.4419E+05  0.0000E+00  0.0000E+00  0.0000E+00  0.0000E+00  0.0000E+00
                2.0000E+04  0.0000E+00  0.0000E+00  0.0000E+00  9.0000E+01  9.0000E+01  9.0000E+01  0.0000E+00  2.5954E+02
 ----------------------------------------------------------------------------------------------------------------------------------
          3500  5.3506E+04  2.5041E+02  5.0386E+04  5.0386E+04  0.0000E+00  0.0000E+00  0.0000E+00  0.0000E+00  0.0000E+00
       3.50000  3.6985E+05  0.0000E+00 -9.4280E+05 -9.4280E+05  0.0000E+00  0.0000E+00  0.0000E+00  0.0000E+00  0.0000E+00
         9.565  2.0000E+04  0.0000E+00  0.0000E+00  0.0000E+00  9.0000E+01  9.0000E+01  9.0000E+01  0.0000E+00  2.5922E+02

       rolling  5.3507E+04  2.4410E+02  5.0466E+04  5.0466E+04  0.0000E+00  0.0000E+00  0.0000E+00  0.0000E+00  0.0000E+00
      averages  3.7014E+05  0.0000E+00 -9.4381E+05 -9.4381E+05  0.0000E+00  0.0000E+00  0.0000E+00  0.0000E+00  0.0000E+00
                2.0000E+04  0.0000E+00  0.0000E+00  0.0000E+00  9.0000E+01  9.0000E+01  9.0000E+01  0.0000E+00  2.5945E+02
 ----------------------------------------------------------------------------------------------------------------------------------
          3600  5.3507E+04  2.3418E+02  5.0590E+04  5.0590E+04  0.0000E+00  0.0000E+00  0.0000E+00  0.0000E+00  0.0000E+00
       3.60000  3.7056E+05  0.0000E+00 -9.4533E+05 -9.4533E+05  0.0000E+00  0.0000E+00  0.0000E+00  0.0000E+00  0.0000E+00
         9.824  2.0000E+04  0.0000E+00  0.0000E+00  0.0000E+00  9.0000E+01  9.0000E+01  9.0000E+01  0.0000E+00  2.5980E+02

       rolling  5.3507E+04  2.3735E+02  5.0550E+04  5.0550E+04  0.0000E+00  0.0000E+00  0.0000E+00  0.0000E+00  0.0000E+00
      averages  3.7042E+05  0.0000E+00 -9.4483E+05 -9.4483E+05  0.0000E+00  0.0000E+00  0.0000E+00  0.0000E+00  0.0000E+00
                2.0000E+04  0.0000E+00  0.0000E+00  0.0000E+00  9.0000E+01  9.0000E+01  9.0000E+01  0.0000E+00  2.5968E+02
 ----------------------------------------------------------------------------------------------------------------------------------
          3700  5.3505E+04  2.4801E+02  5.0415E+04  5.0415E+04  0.0000E+00  0.0000E+00  0.0000E+00  0.0000E+00  0.0000E+00
       3.70000  3.6994E+05  0.0000E+00 -9.4313E+05 -9.4313E+05  0.0000E+00  0.0000E+00  0.0000E+00  0.0000E+00  0.0000E+00
        10.095  2.0000E+04  0.0000E+00  0.0000E+00  0.0000E+00  9.0000E+01  9.0000E+01  9.0000E+01  0.0000E+00  2.5929E+02

       rolling  5.3507E+04  2.4601E+02  5.0442E+04  5.0442E+04  0.0000E+00  0.0000E+00  0.0000E+00  0.0000E+00  0.0000E+00
      averages  3.7005E+05  0.0000E+00 -9.4350E+05 -9.4350E+05  0.0000E+00  0.0000E+00  0.0000E+00  0.0000E+00  0.0000E+00
                2.0000E+04  0.0000E+00  0.0000E+00  0.0000E+00  9.0000E+01  9.0000E+01  9.0000E+01  0.0000E+00  2.5938E+02
 ----------------------------------------------------------------------------------------------------------------------------------
          3800  5.3507E+04  2.3834E+02  5.0538E+04  5.0538E+04  0.0000E+00  0.0000E+00  0.0000E+00  0.0000E+00  0.0000E+00
       3.80000  3.7039E+05  0.0000E+00 -9.4472E+05 -9.4472E+05  0.0000E+00  0.0000E+00  0.0000E+00  0.0000E+00  0.0000E+00
        10.361  2.0000E+04  0.0000E+00  0.0000E+00  0.0000E+00  9.0000E+01  9.0000E+01  9.0000E+01  0.0000E+00  2.5966E+02

       rolling  5.3505E+04  2.4350E+02  5.0471E+04  5.0471E+04  0.0000E+00  0.0000E+00  0.0000E+00  0.0000E+00  0.0000E+00
      averages  3.7015E+05  0.0000E+00 -9.4386E+05 -9.4386E+05  0.0000E+00  0.0000E+00  0.0000E+00  0.0000E+00  0.0000E+00
                2.0000E+04  0.0000E+00  0.0000E+00  0.0000E+00  9.0000E+01  9.0000E+01  9.0000E+01  0.0000E+00  2.5946E+02
 ----------------------------------------------------------------------------------------------------------------------------------
          3900  5.3505E+04  2.4666E+02  5.0432E+04  5.0432E+04  0.0000E+00  0.0000E+00  0.0000E+00  0.0000E+00  0.0000E+00
       3.90000  3.7001E+05  0.0000E+00 -9.4338E+05 -9.4338E+05  0.0000E+00  0.0000E+00  0.0000E+00  0.0000E+00  0.0000E+00
        10.626  2.0000E+04  0.0000E+00  0.0000E+00  0.0000E+00  9.0000E+01  9.0000E+01  9.0000E+01  0.0000E+00  2.5935E+02

       rolling  5.3508E+04  2.4430E+02  5.0464E+04  5.0464E+04  0.0000E+00  0.0000E+00  0.0000E+00  0.0000E+00  0.0000E+00
      averages  3.7011E+05  0.0000E+00 -9.4371E+05 -9.4371E+05  0.0000E+00  0.0000E+00  0.0000E+00  0.0000E+00  0.0000E+00
                2.0000E+04  0.0000E+00  0.0000E+00  0.0000E+00  9.0000E+01  9.0000E+01  9.0000E+01  0.0000E+00  2.5943E+02
 ----------------------------------------------------------------------------------------------------------------------------------
 ----------------------------------------------------------------------------------------------------------------------------------

          step     eng_tot    temp_tot     eng_cfg     eng_src     eng_cou     eng_bnd     eng_ang     eng_dih     eng_tet
      time(ps)      eng_pv    temp_rot     vir_cfg     vir_src     vir_cou     vir_bnd     vir_ang     vir_con     vir_tet
      cpu  (s)      volume    temp_shl     eng_shl     vir_shl       alpha        beta       gamma     vir_pmf       press

 ----------------------------------------------------------------------------------------------------------------------------------
          4000  5.3505E+04  2.4798E+02  5.0415E+04  5.0415E+04  0.0000E+00  0.0000E+00  0.0000E+00  0.0000E+00  0.0000E+00
       4.00000  3.6995E+05  0.0000E+00 -9.4316E+05 -9.4316E+05  0.0000E+00  0.0000E+00  0.0000E+00  0.0000E+00  0.0000E+00
        10.890  2.0000E+04  0.0000E+00  0.0000E+00  0.0000E+00  9.0000E+01  9.0000E+01  9.0000E+01  0.0000E+00  2.5930E+02

       rolling  5.3505E+04  2.4364E+02  5.0470E+04  5.0470E+04  0.0000E+00  0.0000E+00  0.0000E+00  0.0000E+00  0.0000E+00
      averages  3.7015E+05  0.0000E+00 -9.4386E+05 -9.4386E+05  0.0000E+00  0.0000E+00  0.0000E+00  0.0000E+00  0.0000E+00
                2.0000E+04  0.0000E+00  0.0000E+00  0.0000E+00  9.0000E+01  9.0000E+01  9.0000E+01  0.0000E+00  2.5946E+02
 ----------------------------------------------------------------------------------------------------------------------------------
          4100  5.3503E+04  2.5528E+02  5.0322E+04  5.0322E+04  0.0000E+00  0.0000E+00  0.0000E+00  0.0000E+00  0.0000E+00
       4.10000  3.6964E+05  0.0000E+00 -9.4204E+05 -9.4204E+05  0.0000E+00  0.0000E+00  0.0000E+00  0.0000E+00  0.0000E+00
        11.252  2.0000E+04  0.0000E+00  0.0000E+00  0.0000E+00  9.0000E+01  9.0000E+01  9.0000E+01  0.0000E+00  2.5904E+02

       rolling  5.3504E+04  2.5206E+02  5.0363E+04  5.0363E+04  0.0000E+00  0.0000E+00  0.0000E+00  0.0000E+00  0.0000E+00
      averages  3.6978E+05  0.0000E+00 -9.4255E+05 -9.4255E+05  0.0000E+00  0.0000E+00  0.0000E+00  0.0000E+00  0.0000E+00
                2.0000E+04  0.0000E+00  0.0000E+00  0.0000E+00  9.0000E+01  9.0000E+01  9.0000E+01  0.0000E+00  2.5916E+02
 ----------------------------------------------------------------------------------------------------------------------------------
          4200  5.3504E+04  2.5748E+02  5.0296E+04  5.0296E+04  0.0000E+00  0.0000E+00  0.0000E+00  0.0000E+00  0.0000E+00
       4.20000  3.6952E+05  0.0000E+00 -9.4163E+05 -9.4163E+05  0.0000E+00  0.0000E+00  0.0000E+00  0.0000E+00  0.0000E+00
        11.521  2.0000E+04  0.0000E+00  0.0000E+00  0.0000E+00  9.0000E+01  9.0000E+01  9.0000E+01  0.0000E+00  2.5895E+02

       rolling  5.3504E+04  2.5206E+02  5.0364E+04  5.0364E+04  0.0000E+00  0.0000E+00  0.0000E+00  0.0000E+00  0.0000E+00
      averages  3.6977E+05  0.0000E+00 -9.4250E+05 -9.4250E+05  0.0000E+00  0.0000E+00  0.0000E+00  0.0000E+00  0.0000E+00
                2.0000E+04  0.0000E+00  0.0000E+00  0.0000E+00  9.0000E+01  9.0000E+01  9.0000E+01  0.0000E+00  2.5915E+02
 ----------------------------------------------------------------------------------------------------------------------------------
          4300  5.3506E+04  2.5948E+02  5.0273E+04  5.0273E+04  0.0000E+00  0.0000E+00  0.0000E+00  0.0000E+00  0.0000E+00
       4.30000  3.6944E+05  0.0000E+00 -9.4132E+05 -9.4132E+05  0.0000E+00  0.0000E+00  0.0000E+00  0.0000E+00  0.0000E+00
        11.787  2.0000E+04  0.0000E+00  0.0000E+00  0.0000E+00  9.0000E+01  9.0000E+01  9.0000E+01  0.0000E+00  2.5888E+02

       rolling  5.3505E+04  2.5108E+02  5.0376E+04  5.0376E+04  0.0000E+00  0.0000E+00  0.0000E+00  0.0000E+00  0.0000E+00
      averages  3.6981E+05  0.0000E+00 -9.4266E+05 -9.4266E+05  0.0000E+00  0.0000E+00  0.0000E+00  0.0000E+00  0.0000E+00
                2.0000E+04  0.0000E+00  0.0000E+00  0.0000E+00  9.0000E+01  9.0000E+01  9.0000E+01  0.0000E+00  2.5918E+02
 ----------------------------------------------------------------------------------------------------------------------------------
          4400  5.3504E+04  2.5356E+02  5.0345E+04  5.0345E+04  0.0000E+00  0.0000E+00  0.0000E+00  0.0000E+00  0.0000E+00
       4.40000  3.6969E+05  0.0000E+00 -9.4224E+05 -9.4224E+05  0.0000E+00  0.0000E+00  0.0000E+00  0.0000E+00  0.0000E+00
        12.050  2.0000E+04  0.0000E+00  0.0000E+00  0.0000E+00  9.0000E+01  9.0000E+01  9.0000E+01  0.0000E+00  2.5909E+02

       rolling  5.3505E+04  2.5467E+02  5.0332E+04  5.0332E+04  0.0000E+00  0.0000E+00  0.0000E+00  0.0000E+00  0.0000E+00
      averages  3.6964E+05  0.0000E+00 -9.4205E+05 -9.4205E+05  0.0000E+00  0.0000E+00  0.0000E+00  0.0000E+00  0.0000E+00
                2.0000E+04  0.0000E+00  0.0000E+00  0.0000E+00  9.0000E+01  9.0000E+01  9.0000E+01  0.0000E+00  2.5904E+02
 ----------------------------------------------------------------------------------------------------------------------------------
          4500  5.3506E+04  2.6372E+02  5.0220E+04  5.0220E+04  0.0000E+00  0.0000E+00  0.0000E+00  0.0000E+00  0.0000E+00
       4.50000  3.6923E+05  0.0000E+00 -9.4060E+05 -9.4060E+05  0.0000E+00  0.0000E+00  0.0000E+00  0.0000E+00  0.0000E+00
        12.322  2.0000E+04  0.0000E+00  0.0000E+00  0.0000E+00  9.0000E+01  9.0000E+01  9.0000E+01  0.0000E+00  2.5871E+02

       rolling  5.3505E+04  2.5525E+02  5.0325E+04  5.0325E+04  0.0000E+00  0.0000E+00  0.0000E+00  0.0000E+00  0.0000E+00
      averages  3.6962E+05  0.0000E+00 -9.4197E+05 -9.4197E+05  0.0000E+00  0.0000E+00  0.0000E+00  0.0000E+00  0.0000E+00
                2.0000E+04  0.0000E+00  0.0000E+00  0.0000E+00  9.0000E+01  9.0000E+01  9.0000E+01  0.0000E+00  2.5903E+02
 ----------------------------------------------------------------------------------------------------------------------------------
          4600  5.3509E+04  2.5898E+02  5.0282E+04  5.0282E+04  0.0000E+00  0.0000E+00  0.0000E+00  0.0000E+00  0.0000E+00
       4.60000  3.6945E+05  0.0000E+00 -9.4138E+05 -9.4138E+05  0.0000E+00  0.0000E+00  0.0000E+00  0.0000E+00  0.0000E+00
        12.584  2.0000E+04  0.0000E+00  0.0000E+00  0.0000E+00  9.0000E+01  9.0000E+01  9.0000E+01  0.0000E+00  2.5889E+02

       rolling  5.3508E+04  2.5620E+02  5.0316E+04  5.0316E+04  0.0000E+00  0.0000E+00  0.0000E+00  0.0000E+00  0.0000E+00
      averages  3.6957E+05  0.0000E+00 -9.4181E+05 -9.4181E+05  0.0000E+00  0.0000E+00  0.0000E+00  0.0000E+00  0.0000E+00
                2.0000E+04  0.0000E+00  0.0000E+00  0.0000E+00  9.0000E+01  9.0000E+01  9.0000E+01  0.0000E+00  2.5899E+02
 ----------------------------------------------------------------------------------------------------------------------------------
          4700  5.3511E+04  2.5290E+02  5.0360E+04  5.0360E+04  0.0000E+00  0.0000E+00  0.0000E+00  0.0000E+00  0.0000E+00
       4.70000  3.6975E+05  0.0000E+00 -9.4243E+05 -9.4243E+05  0.0000E+00  0.0000E+00  0.0000E+00  0.0000E+00  0.0000E+00
        12.849  2.0000E+04  0.0000E+00  0.0000E+00  0.0000E+00  9.0000E+01  9.0000E+01  9.0000E+01  0.0000E+00  2.5913E+02

       rolling  5.3509E+04  2.5476E+02  5.0335E+04  5.0335E+04  0.0000E+00  0.0000E+00  0.0000E+00  0.0000E+00  0.0000E+00
      averages  3.6966E+05  0.0000E+00 -9.4209E+05 -9.4209E+05  0.0000E+00  0.0000E+00  0.0000E+00  0.0000E+00  0.0000E+00
                2.0000E+04  0.0000E+00  0.0000E+00  0.0000E+00  9.0000E+01  9.0000E+01  9.0000E+01  0.0000E+00  2.5905E+02
 ----------------------------------------------------------------------------------------------------------------------------------
 ----------------------------------------------------------------------------------------------------------------------------------

          step     eng_tot    temp_tot     eng_cfg     eng_src     eng_cou     eng_bnd     eng_ang     eng_dih     eng_tet
      time(ps)      eng_pv    temp_rot     vir_cfg     vir_src     vir_cou     vir_bnd     vir_ang     vir_con     vir_tet
      cpu  (s)      volume    temp_shl     eng_shl     vir_shl       alpha        beta       gamma     vir_pmf       press

 ----------------------------------------------------------------------------------------------------------------------------------
          4800  5.3507E+04  2.5264E+02  5.0359E+04  5.0359E+04  0.0000E+00  0.0000E+00  0.0000E+00  0.0000E+00  0.0000E+00
       4.80000  3.6975E+05  0.0000E+00 -9.4245E+05 -9.4245E+05  0.0000E+00  0.0000E+00  0.0000E+00  0.0000E+00  0.0000E+00
        13.112  2.0000E+04  0.0000E+00  0.0000E+00  0.0000E+00  9.0000E+01  9.0000E+01  9.0000E+01  0.0000E+00  2.5914E+02

       rolling  5.3508E+04  2.5390E+02  5.0345E+04  5.0345E+04  0.0000E+00  0.0000E+00  0.0000E+00  0.0000E+00  0.0000E+00
      averages  3.6969E+05  0.0000E+00 -9.4223E+05 -9.4223E+05  0.0000E+00  0.0000E+00  0.0000E+00  0.0000E+00  0.0000E+00
                2.0000E+04  0.0000E+00  0.0000E+00  0.0000E+00  9.0000E+01  9.0000E+01  9.0000E+01  0.0000E+00  2.5909E+02
 ----------------------------------------------------------------------------------------------------------------------------------
          4900  5.3508E+04  2.5881E+02  5.0283E+04  5.0283E+04  0.0000E+00  0.0000E+00  0.0000E+00  0.0000E+00  0.0000E+00
       4.90000  3.6945E+05  0.0000E+00 -9.4139E+05 -9.4139E+05  0.0000E+00  0.0000E+00  0.0000E+00  0.0000E+00  0.0000E+00
        13.374  2.0000E+04  0.0000E+00  0.0000E+00  0.0000E+00  9.0000E+01  9.0000E+01  9.0000E+01  0.0000E+00  2.5889E+02

       rolling  5.3507E+04  2.5897E+02  5.0281E+04  5.0281E+04  0.0000E+00  0.0000E+00  0.0000E+00  0.0000E+00  0.0000E+00
      averages  3.6945E+05  0.0000E+00 -9.4137E+05 -9.4137E+05  0.0000E+00  0.0000E+00  0.0000E+00  0.0000E+00  0.0000E+00
                2.0000E+04  0.0000E+00  0.0000E+00  0.0000E+00  9.0000E+01  9.0000E+01  9.0000E+01  0.0000E+00  2.5889E+02
 ----------------------------------------------------------------------------------------------------------------------------------
          5000  5.3511E+04  2.5547E+02  5.0328E+04  5.0328E+04  0.0000E+00  0.0000E+00  0.0000E+00  0.0000E+00  0.0000E+00
       5.00000  3.6961E+05  0.0000E+00 -9.4194E+05 -9.4194E+05  0.0000E+00  0.0000E+00  0.0000E+00  0.0000E+00  0.0000E+00
        13.643  2.0000E+04  0.0000E+00  0.0000E+00  0.0000E+00  9.0000E+01  9.0000E+01  9.0000E+01  0.0000E+00  2.5902E+02

       rolling  5.3508E+04  2.5811E+02  5.0292E+04  5.0292E+04  0.0000E+00  0.0000E+00  0.0000E+00  0.0000E+00  0.0000E+00
      averages  3.6949E+05  0.0000E+00 -9.4151E+05 -9.4151E+05  0.0000E+00  0.0000E+00  0.0000E+00  0.0000E+00  0.0000E+00
                2.0000E+04  0.0000E+00  0.0000E+00  0.0000E+00  9.0000E+01  9.0000E+01  9.0000E+01  0.0000E+00  2.5892E+02
 ----------------------------------------------------------------------------------------------------------------------------------


 run terminating...  elapsed cpu time:       13.693 sec, job time:     3600.000 sec, close time:      100.000 sec



 sample of final configuration on node zero

        i       x(i)        y(i)        z(i)       vx(i)       vy(i)       vz(i)       fx(i)       fy(i)       fz(i)


        1 -1.0824E+01 -1.3481E+01 -1.2532E+01 -2.2341E+00  5.9259E-01  3.8425E-01  3.2786E+03 -2.1014E+03  3.7984E+02
       51 -1.3036E+01  2.5284E+00 -1.2517E+01  3.0986E+00  8.7979E-01  2.3574E-01  4.5903E+03 -3.4981E+03  1.6437E+02
      101 -1.1412E+01 -1.2805E+01 -9.8072E+00 -2.0890E+00 -3.2640E+00 -1.2099E+00  7.3530E+03 -1.3668E+03  5.2000E+03
      151 -1.1667E+01  2.8996E+00 -8.1916E+00 -1.2952E+00  1.3779E-01  3.6480E-01 -3.7598E+03  8.8282E+02 -1.7336E+03
      201 -1.2663E+01 -1.1283E+01 -7.7386E+00 -1.9762E-02 -1.4265E+00 -2.7385E+00 -9.5456E+03  3.9258E+02  1.9241E+03
      251 -1.2025E+01  2.5133E+00 -5.3435E+00 -1.0880E+00 -3.4821E+00 -1.2000E+00 -3.9432E+03  5.2231E+02 -1.3872E+03
      301 -1.2915E+01 -1.1492E+01 -4.8002E+00  1.5821E+00  1.0714E-01  2.6854E+00 -3.6476E+03 -9.7936E+03  5.3369E+02
      351 -1.1185E+01  5.1014E-01 -3.5119E+00  3.6797E-01 -5.1093E+00  8.8275E-01 -3.3397E+03  9.5312E+03  8.2852E+03
      401 -1.1701E+01 -9.9781E+00 -2.4457E+00  1.9799E+00 -1.4431E+00  4.0253E-01  4.0018E+03  4.2882E+02 -3.0830E+03
      451 -1.1783E+01  5.5109E-01 -5.8855E-01 -1.4959E+00  2.8785E-02 -5.4582E-01  1.6341E+04  4.6183E+03 -1.7674E+03
      501 -1.0596E+01 -1.2337E+01 -5.3440E-01 -2.2447E+00 -4.4185E+00  5.4583E+00 -3.9739E+03  3.7060E+03  2.3204E+03
      551  1.3283E+01  5.6305E-01  1.2178E+00  3.0805E-01 -8.6261E+00 -1.5432E+00 -4.1390E+03 -3.9844E+03  2.7129E+03
      601 -1.1225E+01 -1.2923E+01  2.2892E+00 -3.6112E+00  3.4228E+00 -8.3846E-01 -4.3597E+03  3.0146E+03 -8.5568E+01
      651 -1.1049E+01  2.1861E+00  2.9348E+00 -3.7146E+00 -4.7404E+00  1.9769E+00  3.5809E+02 -2.9663E+03  2.4643E+03
      701 -1.2524E+01 -1.2122E+01  4.9377E+00 -1.3515E+00 -3.2864E+00  2.0253E+00 -4.2362E+03  3.7799E+03  2.9979E+03
      751 -1.2797E+01  2.8935E+00  5.5751E+00  9.6404E-01  5.0303E+00 -1.0681E+00  3.8271E+03 -8.5885E+03 -1.1608E+03
      801 -1.1462E+01 -1.2159E+01  9.6992E+00  1.6988E-01 -1.2342E+00 -1.0162E+00  5.0686E+02  7.2895E+03 -7.0003E+02
      851 -1.2195E+01  8.1723E-01  9.7018E+00 -2.1529E+00 -4.1160E+00 -1.0559E+00  3.4603E+02  3.0985E+03  3.9648E+03
      901 -1.2856E+01 -1.2794E+01  1.2269E+01  3.4268E+00 -6.9968E-01  1.3624E+00  3.2812E+02  3.4078E+03  2.0154E+03
      951 -1.2740E+01  5.0227E-01  1.2461E+01 -2.5230E+00 -4.3072E-01  2.2690E+00 -1.5742E+04  9.2712E+03  1.7750E+03


 VNL skipping run statistics - skips per timestep: average 14.06 minimum   4 maximum  35


 run terminated after     5000 steps (     5.000 ps), final averages calculated over     4000 steps (     4.000 ps).


 ----------------------------------------------------------------------------------------------------------------------------------

          step     eng_tot    temp_tot     eng_cfg     eng_src     eng_cou     eng_bnd     eng_ang     eng_dih     eng_tet
      time(ps)      eng_pv    temp_rot     vir_cfg     vir_src     vir_cou     vir_bnd     vir_ang     vir_con     vir_tet
      cpu  (s)      volume    temp_shl     eng_shl     vir_shl       alpha        beta       gamma     vir_pmf       press

 ----------------------------------------------------------------------------------------------------------------------------------
          4000  5.3505E+04  2.1819E+02  5.0786E+04  5.0786E+04  0.0000E+00  0.0000E+00  0.0000E+00  0.0000E+00  0.0000E+00
       4.00000  3.7131E+05  0.0000E+00 -9.4797E+05 -9.4797E+05  0.0000E+00  0.0000E+00  0.0000E+00  0.0000E+00  0.0000E+00
        13.784  2.0000E+04  0.0000E+00  0.0000E+00  0.0000E+00  9.0000E+01  9.0000E+01  9.0000E+01  0.0000E+00  2.6041E+02

       r.m.s.   3.1251E+00  4.0567E+01  5.0280E+02  5.0280E+02  0.0000E+00  0.0000E+00  0.0000E+00  0.0000E+00  0.0000E+00
      fluctn.   1.8381E+03  0.0000E+00  6.5331E+03  6.5331E+03  0.0000E+00  0.0000E+00  0.0000E+00  0.0000E+00  0.0000E+00
                0.0000E+00  0.0000E+00  0.0000E+00  0.0000E+00  0.0000E+00  0.0000E+00  0.0000E+00  0.0000E+00  1.5083E+00
 ----------------------------------------------------------------------------------------------------------------------------------


            Approximate 3D Diffusion Coefficients and square root of MSDs

            atom         DC (10^-9 m^2 s^-1)   Sqrt[MSD] (Ang)

            Ar                4.9654E-01          1.2556E+00


                Average pressure tensor  (katms)                              r.m.s. fluctuations

           2.6165E+02  1.6954E+00  1.1998E+00                          1.8171E+00  1.6501E+00  1.7486E+00
           1.6954E+00  2.5888E+02  8.7000E-01                          1.6501E+00  3.3014E+00  1.0635E+00
           1.1998E+00  8.7000E-01  2.6071E+02                          1.7486E+00  1.0635E+00  1.4731E+00

            trace/3    2.6041E+02



 time elapsed since job start:       13.785 sec



 *************************************************************************************************************************
 **************                                                                                             **************
 **************  Thank you for using the DL_POLY_4 package in your work.  Please, acknowledge our efforts   **************
 **************                                                                                             **************
 **************  by including the following reference when publishing data obtained using DL_POLY_4:        **************
 **************                                                                                             **************
 **************  I.T. Todorov, W. Smith, K. Trachenko & M.T. Dove, `J. Mater. Chem.', 16, 1911-1918 (2006)  **************
 **************                                                                                             **************
 *************************************************************************************************************************

